LAMMPS data file Created by LigParGen - (Written by Leela S. Dodda)

      25 atoms
      27 bonds
      42 angles
      60 dihedrals
      13 impropers
 
      25 atom types
      27 bond types
      42 angle types
      60 dihedral types
      13 improper types
 
   -8.061000    41.939000 xlo xhi
   -0.339220    49.660780 ylo yhi
   -5.496090    44.503910 zlo zhi

Masses

       1     14.007  
       2     12.011  
       3     14.007  
       4     12.011  
       5     14.007  
       6     12.011  
       7     12.011  
       8     12.011  
       9     14.007  
      10     14.007  
      11     12.011  
      12     12.011  
      13     12.011  
      14     12.011  
      15     12.011  
      16     12.011  
      17      1.008  
      18      1.008  
      19      1.008  
      20      1.008  
      21      1.008  
      22      1.008  
      23      1.008  
      24      1.008  
      25      1.008  

Pair Coeffs 

       1      0.170  3.2500000 
       2      0.070  3.5500000 
       3      0.170  3.2500000 
       4      0.070  3.5500000 
       5      0.170  3.2500000 
       6      0.080  3.5000000 
       7      0.070  3.5500000 
       8      0.070  3.5500000 
       9      0.170  3.2500000 
      10      0.170  3.2500000 
      11      0.070  3.5500000 
      12      0.070  3.5500000 
      13      0.070  3.5500000 
      14      0.070  3.5500000 
      15      0.070  3.5500000 
      16      0.070  3.5500000 
      17      0.000  0.0000000 
      18      0.000  0.0000000 
      19      0.030  2.4200000 
      20      0.030  2.4200000 
      21      0.030  2.4200000 
      22      0.030  2.4200000 
      23      0.030  2.4200000 
      24      0.030  2.4200000 
      25      0.030  2.4200000 

Bond Coeffs 

       1   427.0000     1.3810 
       2   483.0000     1.3390 
       3   502.0000     1.3240 
       4   502.0000     1.3240 
       5   461.0000     1.3540 
       6   469.0000     1.4000 
       7   469.0000     1.4240 
       8   410.0000     1.3200 
       9   436.0000     1.3740 
      10   385.0000     1.4400 
      11   469.0000     1.4000 
      12   469.0000     1.4000 
      13   469.0000     1.4000 
      14   469.0000     1.4000 
      15   469.0000     1.4000 
      16   434.0000     1.0100 
      17   434.0000     1.0100 
      18   367.0000     1.0800 
      19   367.0000     1.0800 
      20   367.0000     1.0800 
      21   367.0000     1.0800 
      22   367.0000     1.0800 
      23   367.0000     1.0800 
      24   367.0000     1.0800 
      25   469.0000     1.4240 
      26   400.0000     1.3490 
      27   469.0000     1.4000 

Angle Coeffs 

       1     64.510    118.990
       2     70.000    118.600
       3     70.000    129.100
       4     70.000    111.000
       5     70.000    120.000
       6     62.750    119.200
       7     70.000    111.900
       8     70.000    126.200
       9     70.000    125.200
      10     70.000    108.700
      11     63.000    120.000
      12     63.000    120.000
      13     63.000    120.000
      14     70.000    108.700
      15     35.000    119.800
      16     35.000    119.800
      17     35.000    115.450
      18     35.000    128.600
      19     35.000    120.000
      20     35.000    120.000
      21     35.000    120.000
      22     35.000    120.000
      23     35.000    120.000
      24     35.000    118.900
      25     63.000    120.000
      26     70.000    132.400
      27     35.000    120.000
      28     62.750    119.200
      29     35.000    120.000
      30     35.000    120.000
      31     35.000    120.000
      32     56.000    113.100
      33     35.000    115.450
      34     35.000    120.000
      35     70.000    107.700
      36     35.000    120.000
      37     63.000    112.400
      38     63.000    120.000
      39     63.000    120.000
      40     70.000    124.000
      41     70.000    104.100
      42     63.000    120.000

Dihedral Coeffs  

       1      0.000      7.250      0.000      0.000 
       2      0.000      7.250      0.000      0.000 
       3      0.000      7.250      0.000      0.000 
       4      0.000      2.170      0.000      0.000 
       5      0.000      7.250      0.000      0.000 
       6      0.000      7.250      0.000      0.000 
       7      0.000      7.250      0.000      0.000 
       8      0.000      7.250      0.000      0.000 
       9      0.000      2.030      0.000      0.000 
      10      0.000      7.250      0.000      0.000 
      11      0.000      7.250      0.000      0.000 
      12      0.000      7.250      0.000      0.000 
      13      0.000      7.250      0.000      0.000 
      14      0.000      7.250      0.000      0.000 
      15      0.000      7.250      0.000      0.000 
      16      0.000      7.250      0.000      0.000 
      17      0.000      2.170      0.000      0.000 
      18      0.000      7.250      0.000      0.000 
      19      0.000      7.250      0.000      0.000 
      20      0.000      7.250      0.000      0.000 
      21      0.000      7.250      0.000      0.000 
      22      0.000      7.250      0.000      0.000 
      23      0.000      7.250      0.000      0.000 
      24      0.000      7.250      0.000      0.000 
      25      0.000      7.250      0.000      0.000 
      26      0.000      7.250      0.000      0.000 
      27      0.000      7.250      0.000      0.000 
      28      0.000      7.250      0.000      0.000 
      29      0.000      7.250      0.000      0.000 
      30      0.000      7.250      0.000      0.000 
      31      0.000      7.250      0.000      0.000 
      32      0.000      7.250      0.000      0.000 
      33      0.000      7.250      0.000      0.000 
      34      0.000      7.250      0.000      0.000 
      35      0.000      7.250      0.000      0.000 
      36      0.000      7.250      0.000      0.000 
      37      0.000      2.100      0.000      0.000 
      38      0.000      7.250      0.000      0.000 
      39      0.000      7.250      0.000      0.000 
      40      0.000      2.170      0.000      0.000 
      41      0.000      7.250      0.000      0.000 
      42      0.000      2.170      0.000      0.000 
      43      0.000      7.250      0.000      0.000 
      44      0.000      7.250      0.000      0.000 
      45      0.000      7.250      0.000      0.000 
      46      0.000      7.250      0.000      0.000 
      47      0.000      7.250      0.000      0.000 
      48      0.000      7.250      0.000      0.000 
      49      0.000      7.250      0.000      0.000 
      50      0.000      7.250      0.000      0.000 
      51      0.000      7.250      0.000      0.000 
      52      0.000      7.250      0.000      0.000 
      53      0.000      7.250      0.000      0.000 
      54      0.000      7.250      0.000      0.000 
      55      0.000      2.030      0.000      0.000 
      56      0.000      2.100      0.000      0.000 
      57      0.000      7.250      0.000      0.000 
      58      0.000      7.250      0.000      0.000 
      59      0.000      7.250      0.000      0.000 
      60      0.000      7.250      0.000      0.000 

Improper Coeffs 

       1      2.500      -1       2 
       2      2.500      -1       2 
       3      2.500      -1       2 
       4      0.000      -1       2 
       5      2.500      -1       2 
       6      2.500      -1       2 
       7      2.500      -1       2 
       8      2.500      -1       2 
       9      2.500      -1       2 
      10      2.500      -1       2 
      11      2.500      -1       2 
      12      2.500      -1       2 
      13      2.500      -1       2 

Atoms 

     1      1      1 -1.00520000    1.000  1.00000  0.00000
     2      1      2 0.61390000   -0.381  1.00000  0.00000
     3      1      3 -0.68100000   -0.992  1.00000  1.20028
     4      1      4 0.36280000   -2.335  0.94561  1.23425
     5      1      5 -0.51570000   -3.183  0.88925  0.19855
     6      1      6 0.32610000   -2.542  0.89074 -0.98996
     7      1      7 -0.30780000   -1.168  0.99854 -1.15472
     8      1      8 -0.10120000   -0.973  1.07845 -2.54078
     9      1      9 -0.01070000   -2.110  1.02842 -3.23411
    10      1     10 -0.30120000   -3.088  0.78750 -2.27079
    11      1     11 0.14570000   -4.430  0.48459 -2.66034
    12      1     12 -0.14890000   -4.754  0.43229 -4.02772
    13      1     13 -0.13620000   -6.058  0.13694 -4.43642
    14      1     14 -0.15870000   -7.048 -0.10842 -3.48835
    15      1     15 -0.13420000   -6.734 -0.05837 -2.13248
    16      1     16 -0.15570000   -5.436  0.23562 -1.71742
    17      1     17 0.47980000    1.393  1.23420  0.90378
    18      1     18 0.47980000    1.489  1.30643 -0.82636
    19      1     19 0.22090000   -2.786  0.94651  2.22268
    20      1     20 0.20060000   -0.039  1.17313 -3.07960
    21      1     21 0.17580000   -4.000  0.61858 -4.79047
    22      1     22 0.15480000   -6.298  0.10020 -5.49609
    23      1     23 0.15060000   -8.061 -0.33922 -3.80481
    24      1     24 0.15520000   -7.504 -0.25063 -1.38943
    25      1     25 0.19060000   -5.250  0.26210 -0.64919

Bonds 

     1      1      2      1
     2      2      3      2
     3      3      4      3
     4      4      5      4
     5      5      6      5
     6      6      7      2
     7      7      8      7
     8      8      9      8
     9      9     10      6
    10     10     11     10
    11     11     12     11
    12     12     13     12
    13     13     14     13
    14     14     15     14
    15     15     16     11
    16     16     17      1
    17     17     18      1
    18     18     19      4
    19     19     20      8
    20     20     21     12
    21     21     22     13
    22     22     23     14
    23     23     24     15
    24     24     25     16
    25     25      7      6
    26     26     10      9
    27     27     16     15

Angles 

     1      1      1      2      3
     2      2      2      3      4
     3      3      3      4      5
     4      4      4      5      6
     5      5      1      2      7
     6      6      2      7      8
     7      7      7      8      9
     8      8      5      6     10
     9      9      6     10     11
    10     10     10     11     12
    11     11     11     12     13
    12     12     12     13     14
    13     13     13     14     15
    14     14     10     11     16
    15     15      2      1     17
    16     16      2      1     18
    17     17      3      4     19
    18     18      7      8     20
    19     19     11     12     21
    20     20     12     13     22
    21     21     13     14     23
    22     22     14     15     24
    23     23     11     16     25
    24     24      9      8     20
    25     25      2      7      6
    26     26      5      6      7
    27     27     13     12     21
    28     28      6      7      8
    29     29     17      1     18
    30     30     16     15     24
    31     31     15     14     23
    32     32      6     10      9
    33     33      5      4     19
    34     34     15     16     25
    35     35      7      6     10
    36     36     14     13     22
    37     37      9     10     11
    38     38     14     15     16
    39     39     12     11     16
    40     40      3      2      7
    41     41      8      9     10
    42     42     11     16     15

Dihedrals

     1      1      4      3      2      1 
     2      2      5      4      3      2 
     3      3      6      5      4      3 
     4      4      9      8      7      2 
     5      5     12     11     10      6 
     6      6     13     12     11     10 
     7      7     14     13     12     11 
     8      8     15     14     13     12 
     9      9     17      1      2      3 
    10     10      9     10      6      5 
    11     11     14     15     16     11 
    12     12      9     10      6      7 
    13     13     21     12     11     10 
    14     14     21     12     13     14 
    15     15     10      6      5      4 
    16     16     20      8      9     10 
    17     17     12     11     10      9 
    18     18     21     12     11     16 
    19     19     22     13     12     11 
    20     20      6      7      2      3 
    21     21      6      7      2      1 
    22     22      8      7      2      1 
    23     23     16     11     12     13 
    24     24      8      9     10      6 
    25     25     15     16     11     12 
    26     26     16     11     10      6 
    27     27      5      6      7      2 
    28     28     24     15     14     23 
    29     29     25     16     11     10 
    30     30      8      7      2      3 
    31     31     10      6      7      2 
    32     32     19      4      3      2 
    33     33     23     14     13     12 
    34     34     10      9      8      7 
    35     35     11     10      6      7 
    36     36     16     15     14     13 
    37     37     17      1      2      7 
    38     38     25     16     11     12 
    39     39     25     16     15     14 
    40     40      9      8      7      6 
    41     41     11     10      9      8 
    42     42     16     11     10      9 
    43     43     20      8      7      6 
    44     44     24     15     14     13 
    45     45     19      4      5      6 
    46     46     23     14     15     16 
    47     47     11     10      6      5 
    48     48     20      8      7      2 
    49     49     22     13     12     21 
    50     50     10      6      7      8 
    51     51     15     16     11     10 
    52     52      7      2      3      4 
    53     53     22     13     14     15 
    54     54      8      7      6      5 
    55     55     18      1      2      3 
    56     56     18      1      2      7 
    57     57     24     15     16     11 
    58     58     23     14     13     22 
    59     59      7      6      5      4 
    60     60     25     16     15     24 

Impropers

     1      1      2      1      3      7 
     2      2      7      2      6      8 
     3      3      6     10      5      7 
     4      4     10      9     11      6 
     5      5     11     10     12     16 
     6      6      1     18     17      2 
     7      7      4     19      5      3 
     8      8      8      9     20      7 
     9      9     12     13     11     21 
    10     10     13     12     22     14 
    11     11     14     15     13     23 
    12     12     15     16     14     24 
    13     13     16     25     11     15 
