LAMMPS data file Created by LigParGen - (Written by Leela S. Dodda)

      25 atoms
      26 bonds
      40 angles
      56 dihedrals
      13 impropers
 
      25 atom types
      26 bond types
      40 angle types
      56 dihedral types
      13 improper types
 
   -6.512490    43.487510 xlo xhi
    0.149650    50.149650 ylo yhi
   -0.954680    49.045320 zlo zhi

Masses

       1     12.011  
       2     12.011  
       3     12.011  
       4     12.011  
       5     12.011  
       6     12.011  
       7     35.450  
       8     12.011  
       9     15.999  
      10     14.007  
      11     12.011  
      12     12.011  
      13     12.011  
      14     14.007  
      15     12.011  
      16     12.011  
      17     35.450  
      18      1.008  
      19      1.008  
      20      1.008  
      21      1.008  
      22      1.008  
      23      1.008  
      24      1.008  
      25      1.008  

Pair Coeffs 

       1      0.070  3.5500000 
       2      0.070  3.5500000 
       3      0.070  3.5500000 
       4      0.070  3.5500000 
       5      0.070  3.5500000 
       6      0.070  3.5500000 
       7      0.300  3.4000000 
       8      0.070  3.5500000 
       9      0.210  2.9600000 
      10      0.170  3.2500000 
      11      0.070  3.5500000 
      12      0.070  3.5500000 
      13      0.070  3.5500000 
      14      0.170  3.2500000 
      15      0.070  3.5500000 
      16      0.070  3.5500000 
      17      0.300  3.4000000 
      18      0.030  2.4200000 
      19      0.030  2.4200000 
      20      0.030  2.4200000 
      21      0.000  0.0000000 
      22      0.030  2.4200000 
      23      0.030  2.4200000 
      24      0.030  2.4200000 
      25      0.030  2.4200000 

Bond Coeffs 

       1   469.0000     1.4000 
       2   469.0000     1.4000 
       3   469.0000     1.4000 
       4   469.0000     1.4000 
       5   469.0000     1.4000 
       6   300.0000     1.7250 
       7   400.0000     1.4900 
       8   570.0000     1.2290 
       9   490.0000     1.3350 
      10   427.0000     1.3810 
      11   469.0000     1.4000 
      12   469.0000     1.4000 
      13   483.0000     1.3390 
      14   483.0000     1.3390 
      15   469.0000     1.4000 
      16   300.0000     1.7250 
      17   367.0000     1.0800 
      18   367.0000     1.0800 
      19   367.0000     1.0800 
      20   434.0000     1.0100 
      21   367.0000     1.0800 
      22   367.0000     1.0800 
      23   367.0000     1.0800 
      24   367.0000     1.0800 
      25   469.0000     1.4000 
      26   469.0000     1.4000 

Angle Coeffs 

       1     63.000    120.000
       2     63.000    120.000
       3     63.000    120.000
       4     63.000    120.000
       5     75.000    120.000
       6     85.000    120.000
       7     80.000    120.400
       8     70.000    115.500
       9     50.000    121.900
      10     70.000    120.000
      11     63.000    120.000
      12     70.000    124.000
      13     70.000    117.000
      14     70.000    120.000
      15     75.000    120.000
      16     35.000    120.000
      17     35.000    120.000
      18     35.000    120.000
      19     35.000    119.800
      20     35.000    120.000
      21     35.000    120.000
      22     35.000    116.000
      23     35.000    120.000
      24     80.000    122.900
      25     35.000    120.000
      26     63.000    120.000
      27     35.000    119.800
      28     35.000    120.000
      29     35.000    120.000
      30     35.000    120.000
      31     35.000    120.000
      32     63.000    120.000
      33     85.000    120.000
      34     35.000    120.000
      35     63.000    120.000
      36     70.000    124.000
      37     35.000    116.000
      38     75.000    120.000
      39     63.000    120.000
      40     75.000    120.000

Dihedral Coeffs  

       1      0.000      7.250      0.000      0.000 
       2      0.000      7.250      0.000      0.000 
       3      0.000      7.250      0.000      0.000 
       4      0.000      2.100      0.000      0.000 
       5      2.300      6.089      0.000      0.000 
       6      0.000      2.100      0.000      0.000 
       7      0.000      7.250      0.000      0.000 
       8      0.000      7.250      0.000      0.000 
       9      0.000      7.250      0.000      0.000 
      10      0.000      7.250      0.000      0.000 
      11      0.000      7.250      0.000      0.000 
      12      0.000      2.100      0.000      0.000 
      13      0.000      7.250      0.000      0.000 
      14      0.000      7.250      0.000      0.000 
      15      0.000      7.250      0.000      0.000 
      16      0.000      7.250      0.000      0.000 
      17      0.000      7.250      0.000      0.000 
      18      0.000      7.250      0.000      0.000 
      19      0.000      7.250      0.000      0.000 
      20      0.000      1.100      0.000      0.000 
      21      0.000      7.250      0.000      0.000 
      22      0.000      7.250      0.000      0.000 
      23      0.000      7.250      0.000      0.000 
      24      0.000      7.250      0.000      0.000 
      25      0.000      7.250      0.000      0.000 
      26      0.000      1.100      0.000      0.000 
      27      0.000      7.250      0.000      0.000 
      28      0.000      7.250      0.000      0.000 
      29      0.000      7.250      0.000      0.000 
      30      0.000      7.250      0.000      0.000 
      31      0.000      7.250      0.000      0.000 
      32      0.000      7.250      0.000      0.000 
      33      0.000      7.250      0.000      0.000 
      34      0.000      7.250      0.000      0.000 
      35      0.000      6.089      0.000      0.000 
      36      0.000      2.100      0.000      0.000 
      37      0.000      7.250      0.000      0.000 
      38      0.000      7.250      0.000      0.000 
      39      0.000      7.250      0.000      0.000 
      40      0.000      4.900      0.000      0.000 
      41      0.000      7.250      0.000      0.000 
      42      0.000      7.250      0.000      0.000 
      43      0.000      4.900      0.000      0.000 
      44      0.000      2.100      0.000      0.000 
      45      0.000      7.250      0.000      0.000 
      46      0.000      7.250      0.000      0.000 
      47      0.000      7.250      0.000      0.000 
      48      0.000      7.250      0.000      0.000 
      49      0.000      7.250      0.000      0.000 
      50      0.000      7.250      0.000      0.000 
      51      0.000      7.250      0.000      0.000 
      52      0.000      7.250      0.000      0.000 
      53      0.000      7.250      0.000      0.000 
      54      0.000      7.250      0.000      0.000 
      55      0.000      7.250      0.000      0.000 
      56      0.000      2.100      0.000      0.000 

Improper Coeffs 

       1      2.500      -1       2 
       2      2.500      -1       2 
       3     10.500      -1       2 
       4      2.500      -1       2 
       5      2.500      -1       2 
       6      2.500      -1       2 
       7      2.500      -1       2 
       8      2.500      -1       2 
       9      2.500      -1       2 
      10      2.500      -1       2 
      11      2.500      -1       2 
      12      2.500      -1       2 
      13      2.500      -1       2 

Atoms 

     1      1      1 -0.10340000    1.000  1.00000  0.00000
     2      1      2 -0.14920000   -0.389  1.00000  0.00000
     3      1      3 -0.00040000   -1.108  1.00000  1.20782
     4      1      4 -0.10960000   -0.435  1.00000  2.44658
     5      1      5 0.03820000    0.977  1.05609  2.42007
     6      1      6 -0.15040000    1.677  1.05420  1.21160
     7      1      7 -0.01290000    1.970  1.22383  3.83340
     8      1      8 0.63050000   -1.135  0.80537  3.75910
     9      1      9 -0.40530000   -0.562  0.14965  4.62469
    10      1     10 -0.96370000   -2.426  1.29063  3.89721
    11      1     11 0.30180000   -3.245  1.12250  5.04120
    12      1     12 -0.21910000   -2.737  0.86485  6.31182
    13      1     13 0.03860000   -3.625  0.71516  7.36521
    14      1     14 -0.38150000   -4.964  0.80426  7.23567
    15      1     15 0.03980000   -5.431  1.05433  5.99516
    16      1     16 -0.25720000   -4.627  1.21940  4.88016
    17      1     17 -0.04740000   -2.832  0.99801  1.02787
    18      1     18 0.17170000    1.551  0.95926 -0.93726
    19      1     19 0.17620000   -0.914  0.99879 -0.95468
    20      1     20 0.17910000    2.765  1.09427  1.21022
    21      1     21 0.50320000   -2.898  1.60255  3.05573
    22      1     22 0.19790000   -1.675  0.77848  6.50687
    23      1     23 0.18360000   -3.263  0.51234  8.36925
    24      1     24 0.17840000   -6.512  1.12000  5.91778
    25      1     25 0.16120000   -5.083  1.37653  3.90930

Bonds 

     1      1      2      1
     2      2      3      2
     3      3      4      3
     4      4      5      4
     5      5      6      1
     6      6      7      5
     7      7      8      4
     8      8      9      8
     9      9     10      8
    10     10     11     10
    11     11     12     11
    12     12     13     12
    13     13     14     13
    14     14     15     14
    15     15     16     11
    16     16     17      3
    17     17     18      1
    18     18     19      2
    19     19     20      6
    20     20     21     10
    21     21     22     12
    22     22     23     13
    23     23     24     15
    24     24     25     16
    25     25      6      5
    26     26     16     15

Angles 

     1      1      1      2      3
     2      2      2      3      4
     3      3      3      4      5
     4      4      2      1      6
     5      5      4      5      7
     6      6      3      4      8
     7      7      4      8      9
     8      8      4      8     10
     9      9      8     10     11
    10     10     10     11     12
    11     11     11     12     13
    12     12     12     13     14
    13     13     13     14     15
    14     14     10     11     16
    15     15      2      3     17
    16     16      2      1     18
    17     17      1      2     19
    18     18      1      6     20
    19     19      8     10     21
    20     20     11     12     22
    21     21     12     13     23
    22     22     14     15     24
    23     23     11     16     25
    24     24      9      8     10
    25     25     13     12     22
    26     26      4      5      6
    27     27     11     10     21
    28     28      5      6     20
    29     29     15     16     25
    30     30     16     15     24
    31     31      6      1     18
    32     32     11     16     15
    33     33      5      4      8
    34     34      3      2     19
    35     35     12     11     16
    36     36     14     15     16
    37     37     14     13     23
    38     38      4      3     17
    39     39      1      6      5
    40     40      6      5      7

Dihedrals

     1      1      4      3      2      1 
     2      2      5      4      3      2 
     3      3      6      1      2      3 
     4      4      9      8      4      3 
     5      5     11     10      8      4 
     6      6     12     11     10      8 
     7      7     13     12     11     10 
     8      8     14     13     12     11 
     9      9     15     14     13     12 
    10     10     14     15     16     11 
    11     11     17      3      4      8 
    12     12     21     10     11     16 
    13     13     19      2      1     18 
    14     14      6      5      4      3 
    15     15     20      6      1      2 
    16     16     25     16     15     14 
    17     17     20      6      5      4 
    18     18      5      6      1      2 
    19     19      7      5      6      1 
    20     20     10      8      4      3 
    21     21     16     11     12     13 
    22     22     22     12     11     10 
    23     23     15     16     11     12 
    24     24      8      4      3      2 
    25     25     19      2      3      4 
    26     26     10      8      4      5 
    27     27     25     16     15     24 
    28     28     25     16     11     10 
    29     29     23     13     12     22 
    30     30      8      4      5      6 
    31     31     22     12     13     14 
    32     32      7      5      4      3 
    33     33     20      6      5      7 
    34     34     16     15     14     13 
    35     35     11     10      8      9 
    36     36     21     10     11     12 
    37     37     25     16     11     12 
    38     38     17      3      4      5 
    39     39     17      3      2      1 
    40     40     21     10      8      9 
    41     41     24     15     14     13 
    42     42     19      2      3     17 
    43     43     21     10      8      4 
    44     44     16     11     10      8 
    45     45     18      1      6      5 
    46     46     22     12     11     16 
    47     47      4      5      6      1 
    48     48     23     13     12     11 
    49     49     15     16     11     10 
    50     50     20      6      1     18 
    51     51     19      2      1      6 
    52     52     18      1      2      3 
    53     53     24     15     16     11 
    54     54     23     13     14     15 
    55     55      8      4      5      7 
    56     56      9      8      4      5 

Impropers

     1      1      5      4      6      7 
     2      2      4      3      5      8 
     3      3      8      9     10      4 
     4      4     11     10     12     16 
     5      5      3     17      2      4 
     6      6      1     18      6      2 
     7      7      2      1     19      3 
     8      8      6      1     20      5 
     9      9     10     11     21      8 
    10     10     12     11     13     22 
    11     11     13     12     14     23 
    12     12     15     16     14     24 
    13     13     16     25     11     15 
