LAMMPS data file Created by LigParGen - (Written by Leela S. Dodda)

      31 atoms
      33 bonds
      53 angles
      74 dihedrals
      17 impropers
 
      31 atom types
      33 bond types
      53 angle types
      74 dihedral types
      17 improper types
 
   -2.167050    47.832950 xlo xhi
   -1.792780    48.207220 ylo yhi
   -0.940960    49.059040 zlo zhi

Masses

       1     12.011  
       2     12.011  
       3     12.011  
       4     12.011  
       5     12.011  
       6     12.011  
       7     12.011  
       8     14.007  
       9     12.011  
      10     14.007  
      11     14.007  
      12     12.011  
      13     12.011  
      14     12.011  
      15     12.011  
      16     12.011  
      17     12.011  
      18     12.011  
      19     18.998  
      20     18.998  
      21     18.998  
      22      1.008  
      23      1.008  
      24      1.008  
      25      1.008  
      26      1.008  
      27      1.008  
      28      1.008  
      29      1.008  
      30      1.008  
      31      1.008  

Pair Coeffs 

       1      0.070  3.5500000 
       2      0.070  3.5500000 
       3      0.070  3.5500000 
       4      0.080  3.5000000 
       5      0.080  3.5000000 
       6      0.070  3.5500000 
       7      0.070  3.5500000 
       8      0.170  3.2500000 
       9      0.070  3.5500000 
      10      0.170  3.2500000 
      11      0.170  3.2500000 
      12      0.070  3.5500000 
      13      0.070  3.5500000 
      14      0.070  3.5500000 
      15      0.070  3.5500000 
      16      0.070  3.5500000 
      17      0.070  3.5500000 
      18      0.066  3.5000000 
      19      0.060  2.9000000 
      20      0.060  2.9000000 
      21      0.060  2.9000000 
      22      0.030  2.4200000 
      23      0.030  2.4200000 
      24      0.030  2.4200000 
      25      0.030  2.4200000 
      26      0.030  2.4200000 
      27      0.000  0.0000000 
      28      0.030  2.4200000 
      29      0.030  2.4200000 
      30      0.030  2.4200000 
      31      0.030  2.4200000 

Bond Coeffs 

       1   469.0000     1.4000 
       2   469.0000     1.4000 
       3   469.0000     1.4040 
       4   520.0000     1.3700 
       5   469.0000     1.4000 
       6   469.0000     1.4040 
       7   483.0000     1.3390 
       8   502.0000     1.3240 
       9   461.0000     1.3540 
      10   427.0000     1.3810 
      11   427.0000     1.3810 
      12   469.0000     1.4000 
      13   469.0000     1.4000 
      14   469.0000     1.4000 
      15   469.0000     1.4000 
      16   469.0000     1.4000 
      17   317.0000     1.5100 
      18   367.0000     1.3600 
      19   367.0000     1.3600 
      20   367.0000     1.3600 
      21   367.0000     1.0800 
      22   367.0000     1.0800 
      23   367.0000     1.0800 
      24   367.0000     1.0800 
      25   367.0000     1.0800 
      26   434.0000     1.0100 
      27   367.0000     1.0800 
      28   367.0000     1.0800 
      29   367.0000     1.0800 
      30   367.0000     1.0800 
      31   469.0000     1.4040 
      32   502.0000     1.3240 
      33   469.0000     1.4000 

Angle Coeffs 

       1     63.000    120.000
       2     63.000    120.000
       3     85.000    117.300
       4     63.000    120.000
       5     85.000    117.300
       6     70.000    117.300
       7     70.000    118.600
       8     70.000    132.400
       9     70.000    120.000
      10     70.000    118.000
      11     70.000    120.000
      12     63.000    120.000
      13     63.000    120.000
      14     63.000    120.000
      15     70.000    120.000
      16     70.000    120.000
      17     50.000    109.500
      18     50.000    109.500
      19     50.000    109.500
      20     35.000    120.000
      21     35.000    120.000
      22     35.000    120.000
      23     35.000    120.000
      24     35.000    115.450
      25     35.000    119.800
      26     35.000    120.000
      27     35.000    120.000
      28     35.000    120.000
      29     35.000    120.000
      30     77.000    109.100
      31     35.000    120.000
      32     64.510    118.990
      33     35.000    120.000
      34     35.000    119.800
      35     70.000    129.100
      36     85.000    117.300
      37     35.000    120.000
      38     77.000    109.100
      39     35.000    120.000
      40     70.000    111.000
      41     35.000    120.000
      42     63.000    120.000
      43     85.000    134.900
      44     77.000    109.100
      45     35.000    120.000
      46     35.000    120.000
      47     63.000    120.000
      48     70.000    120.000
      49     35.000    115.450
      50     63.000    120.000
      51     63.000    120.000
      52     70.000    127.700
      53     35.000    120.000

Dihedral Coeffs  

       1      0.000      7.250      0.000      0.000 
       2      0.000      7.000      0.000      0.000 
       3      0.000      7.250      0.000      0.000 
       4      0.000      7.000      0.000      0.000 
       5      0.000      7.250      0.000      0.000 
       6      0.000      2.100      0.000      0.000 
       7      0.000      2.100      0.000      0.000 
       8      0.000      7.250      0.000      0.000 
       9      0.000      7.250      0.000      0.000 
      10      0.000      7.250      0.000      0.000 
      11      0.000      7.250      0.000      0.000 
      12      0.000      7.250      0.000      0.000 
      13      0.000      7.250      0.000      0.000 
      14      0.000      7.250      0.000      0.000 
      15      0.000      7.250      0.000      0.000 
      16      0.000      7.250      0.000      0.000 
      17      0.000      7.250      0.000      0.000 
      18      0.000      7.000      0.000      0.000 
      19      0.000      7.250      0.000      0.000 
      20      0.000      7.250      0.000      0.000 
      21      0.000      7.250      0.000      0.000 
      22      0.000      7.250      0.000      0.000 
      23      0.000      7.250      0.000      0.000 
      24      0.000      7.250      0.000      0.000 
      25      0.000      7.250      0.000      0.000 
      26      0.000      7.250      0.000      0.000 
      27      0.000      7.000      0.000      0.000 
      28      0.000      7.250      0.000      0.000 
      29      0.000      7.250      0.000      0.000 
      30      0.000      2.100      0.000      0.000 
      31      0.000      7.250      0.000      0.000 
      32      0.000      7.250      0.000      0.000 
      33      0.000      7.250      0.000      0.000 
      34      0.000      7.250      0.000      0.000 
      35      0.000      7.250      0.000      0.000 
      36      0.000      7.250      0.000      0.000 
      37      0.000      7.250      0.000      0.000 
      38      0.000      7.250      0.000      0.000 
      39      0.000      7.250      0.000      0.000 
      40      0.000      7.000      0.000      0.000 
      41      0.000      7.250      0.000      0.000 
      42      0.000      7.250      0.000      0.000 
      43      0.000      7.000      0.000      0.000 
      44      0.000      7.250      0.000      0.000 
      45      0.000      7.250      0.000      0.000 
      46      0.000      7.250      0.000      0.000 
      47      0.000      7.250      0.000      0.000 
      48      0.000      7.250      0.000      0.000 
      49      0.000      7.250      0.000      0.000 
      50      0.000      7.250      0.000      0.000 
      51      0.000      2.030      0.000      0.000 
      52      0.000      7.250      0.000      0.000 
      53      0.000      7.250      0.000      0.000 
      54      0.000      7.250      0.000      0.000 
      55      0.000      2.100      0.000      0.000 
      56      0.000      7.250      0.000      0.000 
      57      0.000      2.100      0.000      0.000 
      58      0.000      6.089      0.000      0.000 
      59      0.000      7.250      0.000      0.000 
      60      0.000      7.250      0.000      0.000 
      61      0.000      7.000      0.000      0.000 
      62      0.000      7.250      0.000      0.000 
      63      0.000      7.250      0.000      0.000 
      64      0.000      7.250      0.000      0.000 
      65      0.000      7.250      0.000      0.000 
      66      0.000      2.100      0.000      0.000 
      67      0.000      7.250      0.000      0.000 
      68      0.000      7.250      0.000      0.000 
      69      0.000      7.000      0.000      0.000 
      70      0.000      7.250      0.000      0.000 
      71      0.000      7.250      0.000      0.000 
      72      0.000      7.250      0.000      0.000 
      73      0.000      7.250      0.000      0.000 
      74      0.000      7.250      0.000      0.000 

Improper Coeffs 

       1      2.500      -1       2 
       2      2.500      -1       2 
       3      2.500      -1       2 
       4      2.500      -1       2 
       5      2.500      -1       2 
       6      0.000      -1       2 
       7      0.000      -1       2 
       8      2.500      -1       2 
       9      2.500      -1       2 
      10      2.500      -1       2 
      11      2.500      -1       2 
      12      2.500      -1       2 
      13      2.500      -1       2 
      14      2.500      -1       2 
      15      2.500      -1       2 
      16      2.500      -1       2 
      17      2.500      -1       2 

Atoms 

     1      1      1 -0.15490000    1.000  1.00000  0.00000
     2      1      2 -0.10590000   -0.389  1.00000  0.00000
     3      1      3 -0.13870000   -1.079  1.00000  1.21383
     4      1      4 0.15710000   -0.416  1.00000  2.43550
     5      1      5 -0.14920000    0.987  1.00000  2.44232
     6      1      6 -0.09270000    1.685  1.00000  1.21453
     7      1      7 0.44330000    1.585  0.99839  3.71974
     8      1      8 -0.53960000    0.852  0.99696  4.84918
     9      1      9 0.24960000   -0.475  0.99713  4.70487
    10      1     10 -0.44020000   -1.148  0.99851  3.55197
    11      1     11 -0.70950000    3.004  0.99983  3.82760
    12      1     12 0.19260000    3.764  0.58011  4.94321
    13      1     13 -0.12360000    3.356 -0.49522  5.74274
    14      1     14 -0.12600000    4.147 -0.95495  6.79737
    15      1     15 -0.11940000    5.366 -0.34299  7.07145
    16      1     16 -0.17310000    5.803  0.73530  6.29093
    17      1     17 -0.14340000    5.015  1.16028  5.20473
    18      1     18 0.49780000    7.100  1.43742  6.60613
    19      1     19 -0.16770000    7.755  0.91954  7.68414
    20      1     20 -0.16770000    7.987  1.38408  5.57391
    21      1     21 -0.16770000    6.923  2.76006  6.88085
    22      1     22 0.16100000    1.545  0.99881 -0.94096
    23      1     23 0.16090000   -0.939  0.99882 -0.93699
    24      1     24 0.17540000   -2.167  0.99880  1.20634
    25      1     25 0.16180000    2.773  0.99879  1.19960
    26      1     26 0.22160000   -1.065  0.99727  5.61486
    27      1     27 0.43070000    3.361  1.84887  3.40163
    28      1     28 0.17130000    2.408 -0.99016  5.54679
    29      1     29 0.16520000    3.806 -1.79278  7.40092
    30      1     30 0.17050000    5.972 -0.71369  7.89668
    31      1     31 0.16040000    5.389  1.95449  4.56080

Bonds 

     1      1      2      1
     2      2      3      2
     3      3      4      3
     4      4      5      4
     5      5      6      1
     6      6      7      5
     7      7      8      7
     8      8      9      8
     9      9     10      4
    10     10     11      7
    11     11     12     11
    12     12     13     12
    13     13     14     13
    14     14     15     14
    15     15     16     15
    16     16     17     12
    17     17     18     16
    18     18     19     18
    19     19     20     18
    20     20     21     18
    21     21     22      1
    22     22     23      2
    23     23     24      3
    24     24     25      6
    25     25     26      9
    26     26     27     11
    27     27     28     13
    28     28     29     14
    29     29     30     15
    30     30     31     17
    31     31      6      5
    32     32     10      9
    33     33     17     16

Angles 

     1      1      1      2      3
     2      2      2      3      4
     3      3      3      4      5
     4      4      2      1      6
     5      5      4      5      7
     6      6      5      7      8
     7      7      7      8      9
     8      8      3      4     10
     9      9      5      7     11
    10     10      7     11     12
    11     11     11     12     13
    12     12     12     13     14
    13     13     13     14     15
    14     14     14     15     16
    15     15     11     12     17
    16     16     15     16     18
    17     17     16     18     19
    18     18     16     18     20
    19     19     16     18     21
    20     20      2      1     22
    21     21      1      2     23
    22     22      2      3     24
    23     23      1      6     25
    24     24      8      9     26
    25     25      7     11     27
    26     26     12     13     28
    27     27     13     14     29
    28     28     14     15     30
    29     29     12     17     31
    30     30     20     18     21
    31     31      5      6     25
    32     32      8      7     11
    33     33     16     15     30
    34     34     12     11     27
    35     35      8      9     10
    36     36      4      5      6
    37     37      6      1     22
    38     38     19     18     20
    39     39     15     14     29
    40     40      4     10      9
    41     41      3      2     23
    42     42     13     12     17
    43     43      6      5      7
    44     44     19     18     21
    45     45     16     17     31
    46     46      4      3     24
    47     47     12     17     16
    48     48     17     16     18
    49     49     10      9     26
    50     50     15     16     17
    51     51      1      6      5
    52     52      5      4     10
    53     53     14     13     28

Dihedrals

     1      1      4      3      2      1 
     2      2      5      4      3      2 
     3      3      6      1      2      3 
     4      4      8      7      5      4 
     5      5      9      8      7      5 
     6      6     12     11      7      5 
     7      7     13     12     11      7 
     8      8     14     13     12     11 
     9      9     15     14     13     12 
    10     10     16     15     14     13 
    11     11     19     18     16     15 
    12     12     25      6      5      4 
    13     13     21     18     16     17 
    14     14     31     17     12     11 
    15     15     26      9     10      4 
    16     16     29     14     13     12 
    17     17     24      3      2     23 
    18     18     10      4      3      2 
    19     19     24      3      4     10 
    20     20      6      5      4      3 
    21     21     24      3      2      1 
    22     22     31     17     12     13 
    23     23     30     15     14     29 
    24     24     19     18     16     17 
    25     25     24      3      4      5 
    26     26      5      6      1      2 
    27     27      7      5      6      1 
    28     28     25      6      1     22 
    29     29     29     14     13     28 
    30     30     17     12     11      7 
    31     31     11      7      8      9 
    32     32     18     16     17     12 
    33     33     20     18     16     17 
    34     34     28     13     14     15 
    35     35     31     17     16     18 
    36     36     31     17     16     15 
    37     37     17     16     15     14 
    38     38     16     17     12     11 
    39     39     21     18     16     15 
    40     40      8      7      5      6 
    41     41      7      5      4      3 
    42     42     30     15     14     13 
    43     43     11      7      5      4 
    44     44     10      9      8      7 
    45     45     28     13     12     11 
    46     46     25      6      5      7 
    47     47     30     15     16     18 
    48     48     26      9      8      7 
    49     49     30     15     16     17 
    50     50     17     12     13     14 
    51     51     27     11      7      8 
    52     52     23      2      1      6 
    53     53     15     16     17     12 
    54     54     23      2      3      4 
    55     55     27     11      7      5 
    56     56      8      9     10      4 
    57     57     27     11     12     17 
    58     58     12     11      7      8 
    59     59     20     18     16     15 
    60     60     10      4      5      6 
    61     61      4      5      6      1 
    62     62     16     17     12     13 
    63     63     23      2      1     22 
    64     64     28     13     12     17 
    65     65     29     14     15     16 
    66     66     27     11     12     13 
    67     67      9     10      4      5 
    68     68     22      1      2      3 
    69     69     11      7      5      6 
    70     70     10      4      5      7 
    71     71     18     16     15     14 
    72     72     22      1      6      5 
    73     73      9     10      4      3 
    74     74     25      6      1      2 

Impropers

     1      1      5      4      6      7 
     2      2      4     10      3      5 
     3      3      7     11      5      8 
     4      4     12     17     11     13 
     5      5     16     17     18     15 
     6      6     18     19     20     16 
     7      7     18     19     21     16 
     8      8      1      2     22      6 
     9      9      2      1      3     23 
    10     10      3      2      4     24 
    11     11      6     25      1      5 
    12     12      9     26     10      8 
    13     13     11     27     12      7 
    14     14     13     12     28     14 
    15     15     14     13     29     15 
    16     16     15     16     30     14 
    17     17     17     12     31     16 
