LAMMPS data file Created by LigParGen - (Written by Leela S. Dodda)

      28 atoms
      30 bonds
      47 angles
      68 dihedrals
      15 impropers
 
      28 atom types
      30 bond types
      47 angle types
      68 dihedral types
      15 improper types
 
   -2.168160    47.831840 xlo xhi
   -1.751990    48.248010 ylo yhi
   -0.939130    49.060870 zlo zhi

Masses

       1     12.011  
       2     12.011  
       3     12.011  
       4     12.011  
       5     12.011  
       6     12.011  
       7     12.011  
       8     14.007  
       9     12.011  
      10     14.007  
      11     14.007  
      12     12.011  
      13     12.011  
      14     12.011  
      15     12.011  
      16     12.011  
      17     12.011  
      18     35.450  
      19      1.008  
      20      1.008  
      21      1.008  
      22      1.008  
      23      1.008  
      24      1.008  
      25      1.008  
      26      1.008  
      27      1.008  
      28      1.008  

Pair Coeffs 

       1      0.070  3.5500000 
       2      0.070  3.5500000 
       3      0.070  3.5500000 
       4      0.080  3.5000000 
       5      0.080  3.5000000 
       6      0.070  3.5500000 
       7      0.070  3.5500000 
       8      0.170  3.2500000 
       9      0.070  3.5500000 
      10      0.170  3.2500000 
      11      0.170  3.2500000 
      12      0.070  3.5500000 
      13      0.070  3.5500000 
      14      0.070  3.5500000 
      15      0.070  3.5500000 
      16      0.070  3.5500000 
      17      0.070  3.5500000 
      18      0.300  3.4000000 
      19      0.030  2.4200000 
      20      0.030  2.4200000 
      21      0.030  2.4200000 
      22      0.030  2.4200000 
      23      0.030  2.4200000 
      24      0.000  0.0000000 
      25      0.030  2.4200000 
      26      0.030  2.4200000 
      27      0.030  2.4200000 
      28      0.030  2.4200000 

Bond Coeffs 

       1   469.0000     1.4000 
       2   469.0000     1.4000 
       3   469.0000     1.4040 
       4   520.0000     1.3700 
       5   469.0000     1.4000 
       6   469.0000     1.4040 
       7   483.0000     1.3390 
       8   502.0000     1.3240 
       9   461.0000     1.3540 
      10   427.0000     1.3810 
      11   427.0000     1.3810 
      12   469.0000     1.4000 
      13   469.0000     1.4000 
      14   469.0000     1.4000 
      15   469.0000     1.4000 
      16   469.0000     1.4000 
      17   300.0000     1.7250 
      18   367.0000     1.0800 
      19   367.0000     1.0800 
      20   367.0000     1.0800 
      21   367.0000     1.0800 
      22   367.0000     1.0800 
      23   434.0000     1.0100 
      24   367.0000     1.0800 
      25   367.0000     1.0800 
      26   367.0000     1.0800 
      27   367.0000     1.0800 
      28   469.0000     1.4040 
      29   502.0000     1.3240 
      30   469.0000     1.4000 

Angle Coeffs 

       1     63.000    120.000
       2     63.000    120.000
       3     85.000    117.300
       4     63.000    120.000
       5     85.000    117.300
       6     70.000    117.300
       7     70.000    118.600
       8     70.000    132.400
       9     70.000    120.000
      10     70.000    118.000
      11     70.000    120.000
      12     63.000    120.000
      13     63.000    120.000
      14     63.000    120.000
      15     70.000    120.000
      16     75.000    120.000
      17     35.000    120.000
      18     35.000    120.000
      19     35.000    120.000
      20     35.000    120.000
      21     35.000    115.450
      22     35.000    119.800
      23     35.000    120.000
      24     35.000    120.000
      25     35.000    120.000
      26     35.000    120.000
      27     35.000    120.000
      28     64.510    118.990
      29     35.000    120.000
      30     70.000    129.100
      31     85.000    117.300
      32     35.000    119.800
      33     35.000    120.000
      34     35.000    115.450
      35     70.000    111.000
      36     35.000    120.000
      37     63.000    120.000
      38     85.000    134.900
      39     35.000    120.000
      40     35.000    120.000
      41     63.000    120.000
      42     75.000    120.000
      43     35.000    120.000
      44     63.000    120.000
      45     35.000    120.000
      46     63.000    120.000
      47     70.000    127.700

Dihedral Coeffs  

       1      0.000      7.250      0.000      0.000 
       2      0.000      7.000      0.000      0.000 
       3      0.000      7.250      0.000      0.000 
       4      0.000      7.000      0.000      0.000 
       5      0.000      7.250      0.000      0.000 
       6      0.000      2.100      0.000      0.000 
       7      0.000      2.100      0.000      0.000 
       8      0.000      7.250      0.000      0.000 
       9      0.000      7.250      0.000      0.000 
      10      0.000      7.250      0.000      0.000 
      11      0.000      7.250      0.000      0.000 
      12      0.000      7.000      0.000      0.000 
      13      0.000      7.250      0.000      0.000 
      14      0.000      7.250      0.000      0.000 
      15      0.000      7.250      0.000      0.000 
      16      0.000      2.100      0.000      0.000 
      17      0.000      7.250      0.000      0.000 
      18      0.000      7.000      0.000      0.000 
      19      0.000      7.250      0.000      0.000 
      20      0.000      2.100      0.000      0.000 
      21      0.000      7.250      0.000      0.000 
      22      0.000      7.250      0.000      0.000 
      23      0.000      7.250      0.000      0.000 
      24      0.000      2.100      0.000      0.000 
      25      0.000      7.250      0.000      0.000 
      26      0.000      7.250      0.000      0.000 
      27      0.000      7.250      0.000      0.000 
      28      0.000      7.250      0.000      0.000 
      29      0.000      7.250      0.000      0.000 
      30      0.000      7.250      0.000      0.000 
      31      0.000      7.250      0.000      0.000 
      32      0.000      7.250      0.000      0.000 
      33      0.000      7.250      0.000      0.000 
      34      0.000      7.000      0.000      0.000 
      35      0.000      7.000      0.000      0.000 
      36      0.000      7.250      0.000      0.000 
      37      0.000      7.250      0.000      0.000 
      38      0.000      7.000      0.000      0.000 
      39      0.000      7.250      0.000      0.000 
      40      0.000      7.250      0.000      0.000 
      41      0.000      7.250      0.000      0.000 
      42      0.000      7.250      0.000      0.000 
      43      0.000      7.250      0.000      0.000 
      44      0.000      7.250      0.000      0.000 
      45      0.000      7.250      0.000      0.000 
      46      0.000      7.250      0.000      0.000 
      47      0.000      7.250      0.000      0.000 
      48      0.000      7.250      0.000      0.000 
      49      0.000      7.250      0.000      0.000 
      50      0.000      2.100      0.000      0.000 
      51      0.000      7.250      0.000      0.000 
      52      0.000      6.089      0.000      0.000 
      53      0.000      2.030      0.000      0.000 
      54      0.000      7.250      0.000      0.000 
      55      0.000      7.250      0.000      0.000 
      56      0.000      7.250      0.000      0.000 
      57      0.000      7.000      0.000      0.000 
      58      0.000      7.250      0.000      0.000 
      59      0.000      7.250      0.000      0.000 
      60      0.000      7.250      0.000      0.000 
      61      0.000      7.250      0.000      0.000 
      62      0.000      7.250      0.000      0.000 
      63      0.000      7.250      0.000      0.000 
      64      0.000      7.250      0.000      0.000 
      65      0.000      7.250      0.000      0.000 
      66      0.000      7.250      0.000      0.000 
      67      0.000      7.250      0.000      0.000 
      68      0.000      7.250      0.000      0.000 

Improper Coeffs 

       1      2.500      -1       2 
       2      2.500      -1       2 
       3      2.500      -1       2 
       4      2.500      -1       2 
       5      2.500      -1       2 
       6      2.500      -1       2 
       7      2.500      -1       2 
       8      2.500      -1       2 
       9      2.500      -1       2 
      10      2.500      -1       2 
      11      2.500      -1       2 
      12      2.500      -1       2 
      13      2.500      -1       2 
      14      2.500      -1       2 
      15      2.500      -1       2 

Atoms 

     1      1      1 -0.15690000    1.000  1.00000  0.00000
     2      1      2 -0.10640000   -0.388  1.00000  0.00000
     3      1      3 -0.13960000   -1.080  1.00000  1.21366
     4      1      4 0.15950000   -0.420  1.00000  2.43665
     5      1      5 -0.15150000    0.983  1.00000  2.44514
     6      1      6 -0.09130000    1.684  1.00000  1.21567
     7      1      7 0.44490000    1.578  0.99839  3.72332
     8      1      8 -0.53710000    0.844  0.99696  4.85143
     9      1      9 0.25220000   -0.483  0.99713  4.70420
    10      1     10 -0.44780000   -1.152  0.99851  3.55318
    11      1     11 -0.70720000    2.996  0.99984  3.82781
    12      1     12 0.20520000    3.765  0.59064  4.94107
    13      1     13 -0.15670000    3.363 -0.47011  5.76631
    14      1     14 -0.10900000    4.176 -0.92735  6.80808
    15      1     15 -0.16570000    5.409 -0.32630  7.04050
    16      1     16 0.00080000    5.819  0.72734  6.22815
    17      1     17 -0.19380000    5.026  1.16187  5.16324
    18      1     18 -0.06330000    7.324  1.50415  6.53903
    19      1     19 0.16020000    1.547  0.99881 -0.93913
    20      1     20 0.15990000   -0.937  0.99881 -0.93821
    21      1     21 0.17450000   -2.168  0.99880  1.20366
    22      1     22 0.16160000    2.772  0.99879  1.20198
    23      1     23 0.22050000   -1.076  0.99727  5.61193
    24      1     24 0.42850000    3.350  1.84674  3.39648
    25      1     25 0.16900000    2.404 -0.95473  5.60112
    26      1     26 0.16140000    3.840 -1.75199  7.43162
    27      1     27 0.16670000    6.040 -0.68334  7.84980
    28      1     28 0.16120000    5.394  1.94703  4.50968

Bonds 

     1      1      2      1
     2      2      3      2
     3      3      4      3
     4      4      5      4
     5      5      6      1
     6      6      7      5
     7      7      8      7
     8      8      9      8
     9      9     10      4
    10     10     11      7
    11     11     12     11
    12     12     13     12
    13     13     14     13
    14     14     15     14
    15     15     16     15
    16     16     17     12
    17     17     18     16
    18     18     19      1
    19     19     20      2
    20     20     21      3
    21     21     22      6
    22     22     23      9
    23     23     24     11
    24     24     25     13
    25     25     26     14
    26     26     27     15
    27     27     28     17
    28     28      6      5
    29     29     10      9
    30     30     17     16

Angles 

     1      1      1      2      3
     2      2      2      3      4
     3      3      3      4      5
     4      4      2      1      6
     5      5      4      5      7
     6      6      5      7      8
     7      7      7      8      9
     8      8      3      4     10
     9      9      5      7     11
    10     10      7     11     12
    11     11     11     12     13
    12     12     12     13     14
    13     13     13     14     15
    14     14     14     15     16
    15     15     11     12     17
    16     16     15     16     18
    17     17      2      1     19
    18     18      1      2     20
    19     19      2      3     21
    20     20      1      6     22
    21     21      8      9     23
    22     22      7     11     24
    23     23     12     13     25
    24     24     13     14     26
    25     25     14     15     27
    26     26     12     17     28
    27     27      6      1     19
    28     28      8      7     11
    29     29     15     14     26
    30     30      8      9     10
    31     31      4      5      6
    32     32     12     11     24
    33     33      3      2     20
    34     34     10      9     23
    35     35      4     10      9
    36     36     16     15     27
    37     37     13     12     17
    38     38      6      5      7
    39     39      4      3     21
    40     40     14     13     25
    41     41     12     17     16
    42     42     17     16     18
    43     43     16     17     28
    44     44     15     16     17
    45     45      5      6     22
    46     46      1      6      5
    47     47      5      4     10

Dihedrals

     1      1      4      3      2      1 
     2      2      5      4      3      2 
     3      3      6      1      2      3 
     4      4      8      7      5      4 
     5      5      9      8      7      5 
     6      6     12     11      7      5 
     7      7     13     12     11      7 
     8      8     14     13     12     11 
     9      9     15     14     13     12 
    10     10     16     15     14     13 
    11     11     28     17     12     11 
    12     12     10      4      3      2 
    13     13     16     17     12     13 
    14     14      6      5      4      3 
    15     15     22      6      5      7 
    16     16     24     11     12     13 
    17     17      5      6      1      2 
    18     18      7      5      6      1 
    19     19     28     17     16     15 
    20     20     17     12     11      7 
    21     21     11      7      8      9 
    22     22     21      3      4     10 
    23     23     22      6      5      4 
    24     24     24     11     12     17 
    25     25     28     17     12     13 
    26     26     20      2      1      6 
    27     27     25     13     14     15 
    28     28     25     13     12     17 
    29     29      9     10      4      5 
    30     30     17     16     15     14 
    31     31     16     17     12     11 
    32     32     26     14     13     25 
    33     33     23      9      8      7 
    34     34      8      7      5      6 
    35     35     11      7      5      6 
    36     36      7      5      4      3 
    37     37     23      9     10      4 
    38     38     11      7      5      4 
    39     39     10      9      8      7 
    40     40     21      3      4      5 
    41     41     22      6      1     19 
    42     42     20      2      1     19 
    43     43     22      6      1      2 
    44     44     27     15     14     26 
    45     45     21      3      2      1 
    46     46     17     12     13     14 
    47     47     27     15     14     13 
    48     48     26     14     15     16 
    49     49     15     16     17     12 
    50     50     24     11      7      5 
    51     51      8      9     10      4 
    52     52     12     11      7      8 
    53     53     24     11      7      8 
    54     54     18     16     17     12 
    55     55     27     15     16     18 
    56     56     10      4      5      6 
    57     57      4      5      6      1 
    58     58     19      1      2      3 
    59     59     28     17     16     18 
    60     60     19      1      6      5 
    61     61     27     15     16     17 
    62     62     20      2      3      4 
    63     63     21      3      2     20 
    64     64     10      4      5      7 
    65     65     26     14     13     12 
    66     66      9     10      4      3 
    67     67     25     13     12     11 
    68     68     18     16     15     14 

Impropers

     1      1      5      4      6      7 
     2      2      4     10      3      5 
     3      3      7     11      5      8 
     4      4     12     17     11     13 
     5      5     16     17     18     15 
     6      6      1      2     19      6 
     7      7      2      1      3     20 
     8      8      3      2      4     21 
     9      9      6      1      5     22 
    10     10      9     10     23      8 
    11     11     11     12      7     24 
    12     12     13     25     12     14 
    13     13     14     26     13     15 
    14     14     15     27     14     16 
    15     15     17     12     28     16 
