LAMMPS data file Created by LigParGen - (Written by Leela S. Dodda)

      37 atoms
      39 bonds
      64 angles
      92 dihedrals
      21 impropers
 
      37 atom types
      39 bond types
      64 angle types
      92 dihedral types
      21 improper types
 
   -7.690910    42.309090 xlo xhi
   -1.166620    48.833380 ylo yhi
   -7.261930    42.738070 zlo zhi

Masses

       1     12.011  
       2     12.011  
       3     12.011  
       4     12.011  
       5     12.011  
       6     12.011  
       7     12.011  
       8     12.011  
       9     12.011  
      10     12.011  
      11     14.007  
      12      1.008  
      13     15.999  
      14     12.011  
      15     12.011  
      16     15.999  
      17     15.999  
      18     12.011  
      19     12.011  
      20     12.011  
      21     12.011  
      22     12.011  
      23     12.011  
      24      1.008  
      25      1.008  
      26      1.008  
      27      1.008  
      28      1.008  
      29      1.008  
      30      1.008  
      31      1.008  
      32      1.008  
      33      1.008  
      34      1.008  
      35      1.008  
      36      1.008  
      37      1.008  

Pair Coeffs 

       1      0.066  3.5000000 
       2      0.070  3.5500000 
       3      0.070  3.5500000 
       4      0.070  3.5500000 
       5      0.080  3.5000000 
       6      0.080  3.5000000 
       7      0.070  3.5500000 
       8      0.070  3.5500000 
       9      0.076  3.5500000 
      10      0.076  3.5500000 
      11      0.170  3.2500000 
      12      0.000  0.0000000 
      13      0.170  3.1200000 
      14      0.066  3.5000000 
      15      0.070  3.5500000 
      16      0.210  2.9600000 
      17      0.210  2.9600000 
      18      0.070  3.5500000 
      19      0.070  3.5500000 
      20      0.070  3.5500000 
      21      0.070  3.5500000 
      22      0.070  3.5500000 
      23      0.070  3.5500000 
      24      0.030  2.5000000 
      25      0.030  2.5000000 
      26      0.030  2.5000000 
      27      0.030  2.4200000 
      28      0.030  2.4200000 
      29      0.030  2.4200000 
      30      0.000  0.0000000 
      31      0.030  2.5000000 
      32      0.030  2.5000000 
      33      0.030  2.4200000 
      34      0.030  2.4200000 
      35      0.030  2.4200000 
      36      0.030  2.4200000 
      37      0.030  2.4200000 

Bond Coeffs 

       1   317.0000     1.5100 
       2   469.0000     1.4000 
       3   469.0000     1.4000 
       4   469.0000     1.4040 
       5   520.0000     1.3700 
       6   469.0000     1.4000 
       7   469.0000     1.4000 
       8   385.0000     1.4600 
       9   549.0000     1.3400 
      10   436.0000     1.3740 
      11   434.0000     1.0100 
      12   450.0000     1.3700 
      13   317.0000     1.5100 
      14   317.0000     1.5220 
      15   656.0000     1.2500 
      16   656.0000     1.2500 
      17   385.0000     1.4600 
      18   469.0000     1.4000 
      19   469.0000     1.4000 
      20   469.0000     1.4000 
      21   469.0000     1.4000 
      22   469.0000     1.4000 
      23   340.0000     1.0900 
      24   340.0000     1.0900 
      25   340.0000     1.0900 
      26   367.0000     1.0800 
      27   367.0000     1.0800 
      28   367.0000     1.0800 
      29   553.0000     0.9450 
      30   340.0000     1.0900 
      31   340.0000     1.0900 
      32   367.0000     1.0800 
      33   367.0000     1.0800 
      34   367.0000     1.0800 
      35   367.0000     1.0800 
      36   367.0000     1.0800 
      37   469.0000     1.4040 
      38   448.0000     1.3650 
      39   469.0000     1.4000 

Angle Coeffs 

       1     70.000    120.000
       2     63.000    120.000
       3     63.000    120.000
       4     85.000    117.300
       5     70.000    120.000
       6     85.000    117.300
       7     63.000    120.000
       8     85.000    117.000
       9     70.000    108.700
      10     30.000    125.800
      11     70.000    123.000
      12     85.000    119.700
      13     63.000    112.000
      14     70.000    117.000
      15     70.000    117.000
      16     63.000    120.000
      17     63.000    120.000
      18     63.000    120.000
      19     63.000    120.000
      20     63.000    120.000
      21     63.000    120.000
      22     35.000    109.500
      23     35.000    109.500
      24     35.000    109.500
      25     35.000    120.000
      26     35.000    120.000
      27     35.000    120.000
      28     35.000    109.000
      29     35.000    109.500
      30     35.000    109.500
      31     35.000    120.000
      32     35.000    120.000
      33     35.000    120.000
      34     35.000    120.000
      35     35.000    120.000
      36     35.000    120.000
      37     35.000    120.000
      38     35.000    120.000
      39     35.000    120.000
      40     33.000    107.800
      41     35.000    120.000
      42     63.000    120.000
      43     85.000    117.300
      44     70.000    106.200
      45     63.000    120.000
      46     35.000    120.000
      47     70.000    124.000
      48     35.000    120.000
      49     63.000    120.000
      50     33.000    107.800
      51     70.000    125.200
      52     35.000    119.200
      53     85.000    134.900
      54     80.000    126.000
      55     35.000    120.000
      56     63.000    120.000
      57     60.430    118.760
      58     70.000    121.200
      59     33.000    107.800
      60     35.000    109.500
      61     63.000    120.000
      62     35.000    109.500
      63     63.000    120.000
      64     33.000    107.800

Dihedral Coeffs  

       1      0.000      7.250      0.000      0.000 
       2      0.000      7.250      0.000      0.000 
       3      0.000      7.000      0.000      0.000 
       4      0.000      7.250      0.000      0.000 
       5      0.000      2.170      0.000      0.000 
       6      2.817     -0.169      0.543      0.000 
       7      0.000      0.000      0.000      0.000 
       8      0.000      2.170      0.000      0.000 
       9      0.000      7.250      0.000      0.000 
      10      0.000      7.250      0.000      0.000 
      11      0.000      7.250      0.000      0.000 
      12      0.000      0.000      0.000      0.000 
      13      0.000      1.682      0.000      0.000 
      14      0.000      7.250      0.000      0.000 
      15      0.000      7.250      0.000      0.000 
      16      0.000      7.250      0.000      0.000 
      17      0.000      7.250      0.000      0.000 
      18      0.000      7.250      0.000      0.000 
      19      0.000      7.250      0.000      0.000 
      20      0.000      7.000      0.000      0.000 
      21      0.000      7.250      0.000      0.000 
      22      0.000      7.250      0.000      0.000 
      23      0.000     14.000      0.000      0.000 
      24      0.000      2.170      0.000      0.000 
      25      0.000      0.000      0.000      0.000 
      26      0.000      5.000      0.000      0.000 
      27      0.000      7.250      0.000      0.000 
      28      0.000      0.000      0.000      0.000 
      29      0.000      4.900      0.000      0.000 
      30      0.000      7.250      0.000      0.000 
      31      0.000      0.000     -0.372      0.000 
      32      0.346      0.405     -0.904      0.000 
      33      0.000      7.250      0.000      0.000 
      34      0.000      7.250      0.000      0.000 
      35      0.000      7.250      0.000      0.000 
      36      0.000      7.250      0.000      0.000 
      37      0.000      7.250      0.000      0.000 
      38      0.000      0.000      0.000      0.000 
      39      0.000      7.000      0.000      0.000 
      40      0.000      7.250      0.000      0.000 
      41      0.000      7.250      0.000      0.000 
      42      0.000     14.000      0.000      0.000 
      43      0.000      7.250      0.000      0.000 
      44      0.000      7.250      0.000      0.000 
      45      0.000      7.250      0.000      0.000 
      46      0.000      2.170      0.000      0.000 
      47      0.000      0.000      0.000      0.000 
      48      0.000      7.250      0.000      0.000 
      49      0.000      0.000     -0.372      0.000 
      50      0.000      7.250      0.000      0.000 
      51      0.000      0.000     -0.372      0.000 
      52      0.000     14.000      0.000      0.000 
      53      0.000      7.250      0.000      0.000 
      54      0.000      0.000      0.000      0.000 
      55      0.000      7.250      0.000      0.000 
      56      0.000      0.000      0.000      0.000 
      57      0.000      7.250      0.000      0.000 
      58      0.000      7.250      0.000      0.000 
      59      0.000      7.250      0.000      0.000 
      60      0.000      5.000      0.000      0.000 
      61      0.000      7.000      0.000      0.000 
      62      0.000      7.250      0.000      0.000 
      63      0.000      7.250      0.000      0.000 
      64      0.000      7.250      0.000      0.000 
      65      0.000      0.000     -0.372      0.000 
      66      0.000      5.000      0.000      0.000 
      67      0.000      7.250      0.000      0.000 
      68      0.000      7.250      0.000      0.000 
      69      0.000      7.250      0.000      0.000 
      70      0.000      7.250      0.000      0.000 
      71      0.000      7.250      0.000      0.000 
      72      1.500     -1.500      0.000      0.000 
      73      0.000      7.250      0.000      0.000 
      74      0.000      7.250      0.000      0.000 
      75      0.000      7.250      0.000      0.000 
      76      0.000      7.250      0.000      0.000 
      77      0.000      0.000      0.000      0.000 
      78      0.000      2.170      0.000      0.000 
      79      0.000      7.250      0.000      0.000 
      80      0.000      0.000      0.000      0.000 
      81      0.000      7.250      0.000      0.000 
      82      0.000      1.682      0.000      0.000 
      83      0.000      7.250      0.000      0.000 
      84      0.000      7.250      0.000      0.000 
      85      0.000      7.250      0.000      0.000 
      86      0.000      0.000      0.000      0.000 
      87      0.000      7.250      0.000      0.000 
      88      0.000      7.250      0.000      0.000 
      89      0.000      0.000      0.000      0.000 
      90      0.000     14.000      0.000      0.000 
      91      0.000      0.000      0.000      0.000 
      92      0.000      2.170      0.000      0.000 

Improper Coeffs 

       1      2.500      -1       2 
       2      2.500      -1       2 
       3      2.500      -1       2 
       4      2.500      -1       2 
       5      2.500      -1       2 
       6      2.500      -1       2 
       7     10.500      -1       2 
       8      2.500      -1       2 
       9      2.500      -1       2 
      10      0.000      -1       2 
      11      0.000      -1       2 
      12      2.500      -1       2 
      13      2.500      -1       2 
      14      2.500      -1       2 
      15      0.000      -1       2 
      16      0.000      -1       2 
      17      2.500      -1       2 
      18      2.500      -1       2 
      19      2.500      -1       2 
      20      2.500      -1       2 
      21      2.500      -1       2 

Atoms 

     1      1      1 -0.20140000    1.000  1.00000  0.00000
     2      1      2 -0.09420000   -0.503  1.00000  0.00000
     3      1      3 -0.07090000   -1.218  1.00000  1.19233
     4      1      4 -0.19860000   -2.606  0.99847  1.14583
     5      1      5 0.15030000   -3.289  0.92085 -0.07929
     6      1      6 -0.09360000   -2.616  0.84113 -1.31527
     7      1      7 -0.08750000   -1.198  0.94384 -1.22077
     8      1      8 0.12380000   -3.403  0.66673 -2.52130
     9      1      9 -0.13230000   -4.849  0.66378 -2.39959
    10      1     10 0.47900000   -5.395  0.92518 -1.13504
    11      1     11 -0.50800000   -4.615  0.92456 -0.06586
    12      1     12 0.45600000   -5.128  0.92835  0.80916
    13      1     13 -0.49940000   -6.671  1.26238 -0.83698
    14      1     14 -0.26700000   -5.733  0.46789 -3.62784
    15      1     15 0.51760000   -7.089 -0.21797 -3.56675
    16      1     16 -0.64750000   -7.691 -0.12652 -2.45878
    17      1     17 -0.64750000   -7.475 -0.75043 -4.63683
    18      1     18 -0.07670000   -2.693  0.43476 -3.84670
    19      1     19 -0.12560000   -1.562 -0.40626 -3.94381
    20      1     20 -0.15460000   -0.860 -0.59180 -5.14320
    21      1     21 -0.11680000   -1.346 -0.04180 -6.31985
    22      1     22 -0.14540000   -2.497  0.73235 -6.27829
    23      1     23 -0.10070000   -3.108  1.03149 -5.05294
    24      1     24 0.10470000    1.401  0.95447  1.01769
    25      1     25 0.10470000    1.381  1.90503 -0.48095
    26      1     26 0.10470000    1.367  0.11884 -0.53776
    27      1     27 0.17260000   -0.702  1.00237  2.15112
    28      1     28 0.16910000   -3.154  1.05813  2.08927
    29      1     29 0.17520000   -0.596  0.98156 -2.12799
    30      1     30 0.54470000   -7.271  0.82814 -1.50490
    31      1     31 0.13360000   -5.192 -0.16504 -4.33851
    32      1     32 0.13360000   -5.906  1.45353 -4.07708
    33      1     33 0.14920000   -1.192 -0.94527 -3.07467
    34      1     34 0.15850000    0.062 -1.16662 -5.15152
    35      1     35 0.15950000   -0.833 -0.21512 -7.26193
    36      1     36 0.16670000   -2.931  1.10940 -7.20243
    37      1     37 0.16390000   -3.949  1.71818 -5.08145

Bonds 

     1      1      2      1
     2      2      3      2
     3      3      4      3
     4      4      5      4
     5      5      6      5
     6      6      7      2
     7      7      8      6
     8      8      9      8
     9      9     10      9
    10     10     11      5
    11     11     12     11
    12     12     13     10
    13     13     14      9
    14     14     15     14
    15     15     16     15
    16     16     17     15
    17     17     18      8
    18     18     19     18
    19     19     20     19
    20     20     21     20
    21     21     22     21
    22     22     23     18
    23     23     24      1
    24     24     25      1
    25     25     26      1
    26     26     27      3
    27     27     28      4
    28     28     29      7
    29     29     30     13
    30     30     31     14
    31     31     32     14
    32     32     33     19
    33     33     34     20
    34     34     35     21
    35     35     36     22
    36     36     37     23
    37     37      7      6
    38     38     11     10
    39     39     23     22

Angles 

     1      1      1      2      3
     2      2      2      3      4
     3      3      3      4      5
     4      4      4      5      6
     5      5      1      2      7
     6      6      5      6      8
     7      7      6      8      9
     8      8      8      9     10
     9      9      4      5     11
    10     10      5     11     12
    11     11      9     10     13
    12     12      8      9     14
    13     13      9     14     15
    14     14     14     15     16
    15     15     14     15     17
    16     16      6      8     18
    17     17      8     18     19
    18     18     18     19     20
    19     19     19     20     21
    20     20     20     21     22
    21     21      8     18     23
    22     22      2      1     24
    23     23      2      1     25
    24     24      2      1     26
    25     25      2      3     27
    26     26      3      4     28
    27     27      2      7     29
    28     28     10     13     30
    29     29      9     14     31
    30     30      9     14     32
    31     31     18     19     33
    32     32     19     20     34
    33     33     20     21     35
    34     34     21     22     36
    35     35     18     23     37
    36     36     21     20     34
    37     37     22     21     35
    38     38     23     22     36
    39     39      6      7     29
    40     40     31     14     32
    41     41      5      4     28
    42     42      2      7      6
    43     43      5      6      7
    44     44      6      5     11
    45     45      9      8     18
    46     46     22     23     37
    47     47     10      9     14
    48     48      4      3     27
    49     49     18     23     22
    50     50     24      1     26
    51     51      5     11     10
    52     52     10     11     12
    53     53      7      6      8
    54     54     16     15     17
    55     55     20     19     33
    56     56     21     22     23
    57     57     11     10     13
    58     58      9     10     11
    59     59     25      1     26
    60     60     15     14     31
    61     61      3      2      7
    62     62     15     14     32
    63     63     19     18     23
    64     64     24      1     25

Dihedrals

     1      1      4      3      2      1 
     2      2      5      4      3      2 
     3      3      6      5      4      3 
     4      4      9      8      6      5 
     5      5     10      9      8      6 
     6      6     15     14      9      8 
     7      7     16     15     14      9 
     8      8     19     18      8      6 
     9      9     20     19     18      8 
    10     10     21     20     19     18 
    11     11     22     21     20     19 
    12     12     24      1      2      3 
    13     13     30     13     10      9 
    14     14     27      3      4      5 
    15     15     34     20     19     33 
    16     16     28      4      3      2 
    17     17      6      7      2      1 
    18     18     33     19     20     21 
    19     19     28      4      3     27 
    20     20      8      6      7      2 
    21     21     36     22     21     35 
    22     22      8      6      5      4 
    23     23     13     10      9      8 
    24     24     14      9      8      6 
    25     25     32     14     15     17 
    26     26     12     11      5      6 
    27     27     36     22     21     20 
    28     28     26      1      2      3 
    29     29     12     11     10      9 
    30     30     35     21     20     34 
    31     31     32     14      9      8 
    32     32     15     14      9     10 
    33     33     18      8      9     10 
    34     34     22     23     18     19 
    35     35     10     11      5      4 
    36     36     37     23     22     36 
    37     37     28      4      5     11 
    38     38     31     14     15     16 
    39     39     11      5      4      3 
    40     40     23     18     19     20 
    41     41     22     23     18      8 
    42     42     11     10      9      8 
    43     43     27      3      2      7 
    44     44     28      4      5      6 
    45     45     37     23     18     19 
    46     46     23     18      8      9 
    47     47     25      1      2      7 
    48     48      7      2      3      4 
    49     49     32     14      9     10 
    50     50     34     20     21     22 
    51     51     31     14      9      8 
    52     52     14      9     10     11 
    53     53     27      3      2      1 
    54     54     24      1      2      7 
    55     55     34     20     19     18 
    56     56     25      1      2      3 
    57     57     23     22     21     20 
    58     58     36     22     23     18 
    59     59     29      7      6      8 
    60     60     12     11      5      4 
    61     61      5      6      7      2 
    62     62     37     23     22     21 
    63     63     10     11      5      6 
    64     64     18      8      9     14 
    65     65     31     14      9     10 
    66     66     13     10     11     12 
    67     67      9      8      6      7 
    68     68     35     21     20     19 
    69     69     33     19     18      8 
    70     70      6      7      2      3 
    71     71     35     21     22     23 
    72     72     13     10     11      5 
    73     73     29      7      2      3 
    74     74     33     19     18     23 
    75     75     21     22     23     18 
    76     76     37     23     18      8 
    77     77     17     15     14      9 
    78     78     19     18      8      9 
    79     79     18      8      6      5 
    80     80     26      1      2      7 
    81     81     29      7      6      5 
    82     82     30     13     10     11 
    83     83     11      5      6      8 
    84     84     18      8      6      7 
    85     85     29      7      2      1 
    86     86      9     10     11      5 
    87     87      7      6      5      4 
    88     88     11      5      6      7 
    89     89     32     14     15     16 
    90     90     14      9     10     13 
    91     91     31     14     15     17 
    92     92     23     18      8      6 

Impropers

     1      1      2      1      3      7 
     2      2      6      5      7      8 
     3      3      5     11      4      6 
     4      4     11     10     12      5 
     5      5     10      9     11     13 
     6      6      9     10     14      8 
     7      7     15     17     14     16 
     8      8      8      9     18      6 
     9      9     18     19     23      8 
    10     10      1     25     24      2 
    11     11      1     26     24      2 
    12     12      3      2     27      4 
    13     13      4      3     28      5 
    14     14      7      2     29      6 
    15     15     14      9     15     31 
    16     16     14      9     15     32 
    17     17     19     33     18     20 
    18     18     20     34     19     21 
    19     19     21     35     20     22 
    20     20     22     36     21     23 
    21     21     23     18     37     22 
