LAMMPS data file Created by LigParGen - (Written by Leela S. Dodda)

      31 atoms
      33 bonds
      53 angles
      76 dihedrals
      17 impropers
 
      31 atom types
      33 bond types
      53 angle types
      76 dihedral types
      17 improper types
 
   -6.044670    43.955330 xlo xhi
   -4.495890    45.504110 ylo yhi
   -0.941740    49.058260 zlo zhi

Masses

       1     12.011  
       2     12.011  
       3     12.011  
       4     12.011  
       5     12.011  
       6     12.011  
       7     12.011  
       8     14.007  
       9     12.011  
      10     12.011  
      11     12.011  
      12     12.011  
      13     12.011  
      14     12.011  
      15     12.011  
      16     14.007  
      17     12.011  
      18     14.007  
      19      1.008  
      20      1.008  
      21      1.008  
      22      1.008  
      23      1.008  
      24      1.008  
      25      1.008  
      26      1.008  
      27      1.008  
      28      1.008  
      29      1.008  
      30      1.008  
      31      1.008  

Pair Coeffs 

       1      0.070  3.5500000 
       2      0.070  3.5500000 
       3      0.070  3.5500000 
       4      0.070  3.5500000 
       5      0.070  3.5500000 
       6      0.070  3.5500000 
       7      0.066  3.5000000 
       8      0.170  3.2500000 
       9      0.070  3.5500000 
      10      0.080  3.5000000 
      11      0.070  3.5500000 
      12      0.070  3.5500000 
      13      0.070  3.5500000 
      14      0.070  3.5500000 
      15      0.080  3.5000000 
      16      0.170  3.2500000 
      17      0.070  3.5500000 
      18      0.170  3.2500000 
      19      0.030  2.4200000 
      20      0.030  2.4200000 
      21      0.030  2.4200000 
      22      0.030  2.4200000 
      23      0.030  2.4200000 
      24      0.030  2.5000000 
      25      0.030  2.5000000 
      26      0.000  0.0000000 
      27      0.030  2.4200000 
      28      0.030  2.4200000 
      29      0.030  2.4200000 
      30      0.030  2.4200000 
      31      0.030  2.4200000 

Bond Coeffs 

       1   469.0000     1.4000 
       2   469.0000     1.4000 
       3   469.0000     1.4000 
       4   469.0000     1.4000 
       5   469.0000     1.4000 
       6   317.0000     1.5100 
       7   337.0000     1.4490 
       8   427.0000     1.3810 
       9   469.0000     1.4040 
      10   469.0000     1.4040 
      11   469.0000     1.4000 
      12   469.0000     1.4000 
      13   469.0000     1.4000 
      14   520.0000     1.3700 
      15   461.0000     1.3540 
      16   502.0000     1.3240 
      17   483.0000     1.3390 
      18   367.0000     1.0800 
      19   367.0000     1.0800 
      20   367.0000     1.0800 
      21   367.0000     1.0800 
      22   367.0000     1.0800 
      23   340.0000     1.0900 
      24   340.0000     1.0900 
      25   434.0000     1.0100 
      26   367.0000     1.0800 
      27   367.0000     1.0800 
      28   367.0000     1.0800 
      29   367.0000     1.0800 
      30   367.0000     1.0800 
      31   469.0000     1.4000 
      32   469.0000     1.4040 
      33   502.0000     1.3240 

Angle Coeffs 

       1     63.000    120.000
       2     63.000    120.000
       3     63.000    120.000
       4     63.000    120.000
       5     70.000    120.000
       6     51.650    110.580
       7     50.000    118.000
       8     70.000    120.000
       9     85.000    134.900
      10     63.000    120.000
      11     63.000    120.000
      12     63.000    120.000
      13     85.000    117.300
      14     70.000    127.700
      15     70.000    111.000
      16     64.510    118.990
      17     35.000    120.000
      18     35.000    120.000
      19     35.000    120.000
      20     35.000    120.000
      21     35.000    120.000
      22     35.000    109.500
      23     35.000    109.500
      24     38.000    118.400
      25     35.000    120.000
      26     35.000    120.000
      27     35.000    120.000
      28     35.000    120.000
      29     35.000    115.450
      30     35.000    120.000
      31     35.000    120.000
      32     85.000    117.300
      33     35.000    115.450
      34     70.000    120.000
      35     63.000    120.000
      36     63.000    120.000
      37     35.000    120.000
      38     35.000    120.000
      39     70.000    129.100
      40     33.000    107.800
      41     35.000    120.000
      42     35.000    109.500
      43     35.000    120.000
      44     70.000    132.400
      45     70.000    118.600
      46     35.000    120.000
      47     35.000    120.000
      48     35.000    119.800
      49     35.000    120.000
      50     35.000    109.500
      51     63.000    120.000
      52     85.000    117.300
      53     70.000    117.300

Dihedral Coeffs  

       1      0.000      7.250      0.000      0.000 
       2      0.000      7.250      0.000      0.000 
       3      0.000      7.250      0.000      0.000 
       4      0.000      0.000      0.000      0.000 
       5      0.000      0.000      0.000      0.000 
       6      0.000      2.100      0.000      0.000 
       7      0.000      7.000      0.000      0.000 
       8      0.000      7.000      0.000      0.000 
       9      0.000      7.250      0.000      0.000 
      10      0.000      7.250      0.000      0.000 
      11      0.000      7.250      0.000      0.000 
      12      0.000      0.000      0.000      0.000 
      13      0.000      7.250      0.000      0.000 
      14      0.000      7.250      0.000      0.000 
      15      0.000      7.000      0.000      0.000 
      16      0.000      7.250      0.000      0.000 
      17      0.000      7.000      0.000      0.000 
      18      0.000      7.250      0.000      0.000 
      19      0.000      7.250      0.000      0.000 
      20      0.000      0.000      0.000      0.000 
      21      0.000      7.250      0.000      0.000 
      22      0.000      7.250      0.000      0.000 
      23      0.000      7.000      0.000      0.000 
      24      0.000      7.250      0.000      0.000 
      25      0.000      2.030      0.000      0.000 
      26      0.000      0.000      0.000      0.000 
      27      0.000      7.250      0.000      0.000 
      28      0.000      7.250      0.000      0.000 
      29      0.000      7.250      0.000      0.000 
      30      0.000      0.000      0.000      0.000 
      31      0.000      7.000      0.000      0.000 
      32      0.000      7.250      0.000      0.000 
      33      0.000      7.250      0.000      0.000 
      34      0.000      7.250      0.000      0.000 
      35      0.000      7.250      0.000      0.000 
      36      0.000      7.250      0.000      0.000 
      37      0.000      7.250      0.000      0.000 
      38      0.000      7.250      0.000      0.000 
      39      0.000      7.250      0.000      0.000 
      40      0.000      7.250      0.000      0.000 
      41      0.000      7.000      0.000      0.000 
      42      0.000      7.250      0.000      0.000 
      43      0.000      7.000      0.000      0.000 
      44      0.000      7.250      0.000      0.000 
      45      0.000      0.000      0.000      0.000 
      46      0.000      7.250      0.000      0.000 
      47      0.000      7.250      0.000      0.000 
      48      0.000      7.250      0.000      0.000 
      49      0.000      7.250      0.000      0.000 
      50      0.000      7.250      0.000      0.000 
      51      0.000      7.250      0.000      0.000 
      52      0.000      7.250      0.000      0.000 
      53      0.000      7.250      0.000      0.000 
      54      0.000      7.250      0.000      0.000 
      55      0.000      3.651      0.000      0.000 
      56      0.000      0.000      0.000      0.000 
      57      0.000      7.250      0.000      0.000 
      58      0.000      7.250      0.000      0.000 
      59      0.000      7.250      0.000      0.000 
      60      0.000      0.000      0.000      0.000 
      61      0.000      2.100      0.000      0.000 
      62      0.000      7.250      0.000      0.000 
      63      0.000      7.250      0.000      0.000 
      64      0.000      0.000      0.000      0.000 
      65      0.000      7.250      0.000      0.000 
      66      0.000      7.250      0.000      0.000 
      67      0.000      7.250      0.000      0.000 
      68      0.000      7.250      0.000      0.000 
      69      0.000      7.250      0.000      0.000 
      70      0.000      7.250      0.000      0.000 
      71      0.000      7.250      0.000      0.000 
      72      0.000      0.000      0.000      0.000 
      73      0.000      7.250      0.000      0.000 
      74      0.000      7.250      0.000      0.000 
      75      0.000      7.250      0.000      0.000 
      76      0.000      0.000      0.000      0.000 

Improper Coeffs 

       1      2.500      -1       2 
       2      2.500      -1       2 
       3      2.500      -1       2 
       4      2.500      -1       2 
       5      2.500      -1       2 
       6      2.500      -1       2 
       7      2.500      -1       2 
       8      2.500      -1       2 
       9      2.500      -1       2 
      10      0.000      -1       2 
      11      0.000      -1       2 
      12      2.500      -1       2 
      13      2.500      -1       2 
      14      2.500      -1       2 
      15      2.500      -1       2 
      16      2.500      -1       2 
      17      2.500      -1       2 

Atoms 

     1      1      1 -0.14030000    1.000  1.00000  0.00000
     2      1      2 -0.15310000   -0.393  1.00000  0.00000
     3      1      3 -0.11950000   -1.090  1.00000  1.20940
     4      1      4 -0.11620000   -0.401  1.00000  2.43362
     5      1      5 -0.13710000    1.001  1.00000  2.41578
     6      1      6 -0.15130000    1.695  1.00000  1.20873
     7      1      7 0.08480000   -1.170  1.00166  3.74015
     8      1      8 -0.70090000   -2.005 -0.18991  3.78778
     9      1      9 0.43590000   -2.839 -0.32500  4.91470
    10      1     10 -0.16700000   -3.669 -1.45990  5.01022
    11      1     11 -0.09020000   -3.734 -2.49652  4.04441
    12      1     12 -0.16290000   -4.583 -3.58596  4.21753
    13      1     13 -0.10570000   -5.375 -3.65338  5.35422
    14      1     14 -0.14310000   -5.310 -2.63021  6.30581
    15      1     15 0.17070000   -4.475 -1.53201  6.15521
    16      1     16 -0.47080000   -4.468 -0.58708  7.10001
    17      1     17 0.27370000   -3.644  0.44863  6.90099
    18      1     18 -0.57750000   -2.820  0.62846  5.86145
    19      1     19 0.14920000    1.543  1.00119 -0.94174
    20      1     20 0.15140000   -0.937  1.00119 -0.94107
    21      1     21 0.16110000   -2.179  0.99880  1.19937
    22      1     22 0.14810000    1.564  1.00118  3.34589
    23      1     23 0.15020000    2.782  1.00119  1.20622
    24      1     24 0.11840000   -1.772  1.91784  3.77945
    25      1     25 0.11840000   -0.470  1.01208  4.58446
    26      1     26 0.41210000   -1.444 -1.02823  3.67914
    27      1     27 0.15850000   -3.117 -2.45065  3.14984
    28      1     28 0.15760000   -4.622 -4.37169  3.46802
    29      1     29 0.15740000   -6.045 -4.49589  5.50509
    30      1     30 0.17140000   -5.935 -2.69353  7.19451
    31      1     31 0.21650000   -3.644  1.22190  7.66207

Bonds 

     1      1      2      1
     2      2      3      2
     3      3      4      3
     4      4      5      4
     5      5      6      1
     6      6      7      4
     7      7      8      7
     8      8      9      8
     9      9     10      9
    10     10     11     10
    11     11     12     11
    12     12     13     12
    13     13     14     13
    14     14     15     10
    15     15     16     15
    16     16     17     16
    17     17     18      9
    18     18     19      1
    19     19     20      2
    20     20     21      3
    21     21     22      5
    22     22     23      6
    23     23     24      7
    24     24     25      7
    25     25     26      8
    26     26     27     11
    27     27     28     12
    28     28     29     13
    29     29     30     14
    30     30     31     17
    31     31      6      5
    32     32     15     14
    33     33     18     17

Angles 

     1      1      1      2      3
     2      2      2      3      4
     3      3      3      4      5
     4      4      2      1      6
     5      5      3      4      7
     6      6      4      7      8
     7      7      7      8      9
     8      8      8      9     10
     9      9      9     10     11
    10     10     10     11     12
    11     11     11     12     13
    12     12     12     13     14
    13     13      9     10     15
    14     14     10     15     16
    15     15     15     16     17
    16     16      8      9     18
    17     17      2      1     19
    18     18      1      2     20
    19     19      2      3     21
    20     20      4      5     22
    21     21      1      6     23
    22     22      4      7     24
    23     23      4      7     25
    24     24      7      8     26
    25     25     10     11     27
    26     26     11     12     28
    27     27     12     13     29
    28     28     13     14     30
    29     29     16     17     31
    30     30     14     13     29
    31     31      3      2     20
    32     32     11     10     15
    33     33     18     17     31
    34     34      5      4      7
    35     35      4      5      6
    36     36     13     14     15
    37     37      6      5     22
    38     38     12     11     27
    39     39     16     17     18
    40     40     24      7     25
    41     41      5      6     23
    42     42      8      7     25
    43     43      4      3     21
    44     44     14     15     16
    45     45      9     18     17
    46     46     15     14     30
    47     47     13     12     28
    48     48      9      8     26
    49     49      6      1     19
    50     50      8      7     24
    51     51      1      6      5
    52     52     10     15     14
    53     53     10      9     18

Dihedrals

     1      1      4      3      2      1 
     2      2      5      4      3      2 
     3      3      6      1      2      3 
     4      4      8      7      4      3 
     5      5      9      8      7      4 
     6      6     10      9      8      7 
     7      7     11     10      9      8 
     8      8     12     11     10      9 
     9      9     13     12     11     10 
    10     10     14     13     12     11 
    11     11     17     16     15     10 
    12     12     25      7      4      5 
    13     13     31     17     18      9 
    14     14     27     11     10      9 
    15     15     18      9     10     11 
    16     16     22      5      6      1 
    17     17     13     14     15     10 
    18     18      5      6      1      2 
    19     19     28     12     11     10 
    20     20     24      7      8      9 
    21     21     30     14     15     10 
    22     22     30     14     13     12 
    23     23     15     10      9      8 
    24     24     16     15     10     11 
    25     25     26      8      9     18 
    26     26     26      8      7      4 
    27     27     17     18      9      8 
    28     28     31     17     16     15 
    29     29     23      6      5     22 
    30     30     24      7      4      3 
    31     31     18      9     10     15 
    32     32     14     15     10     11 
    33     33     17     16     15     14 
    34     34     22      5      4      7 
    35     35     29     13     12     11 
    36     36     18     17     16     15 
    37     37     29     13     14     15 
    38     38     28     12     11     27 
    39     39     19      1      2      3 
    40     40      6      5      4      3 
    41     41     16     15     14     13 
    42     42     30     14     13     29 
    43     43     15     10     11     12 
    44     44     20      2      1      6 
    45     45     26      8      7     24 
    46     46     21      3      4      5 
    47     47     23      6      5      4 
    48     48     23      6      1      2 
    49     49     28     12     13     14 
    50     50     21      3      2      1 
    51     51     29     13     12     28 
    52     52     22      5      4      3 
    53     53     21      3      4      7 
    54     54     20      2      1     19 
    55     55     18      9      8      7 
    56     56      8      7      4      5 
    57     57     21      3      2     20 
    58     58     14     15     10      9 
    59     59      7      4      3      2 
    60     60     24      7      4      5 
    61     61     26      8      9     10 
    62     62      4      5      6      1 
    63     63     16     15     10      9 
    64     64     25      7      8      9 
    65     65     27     11     12     13 
    66     66     27     11     10     15 
    67     67     30     14     15     16 
    68     68     20      2      3      4 
    69     69      7      4      5      6 
    70     70     15     14     13     12 
    71     71     16     17     18      9 
    72     72     26      8      7     25 
    73     73     17     18      9     10 
    74     74     23      6      1     19 
    75     75     19      1      6      5 
    76     76     25      7      4      3 

Impropers

     1      1      4      3      5      7 
     2      2     10      9     11     15 
     3      3     15     10     14     16 
     4      4      9     18     10      8 
     5      5      1      2     19      6 
     6      6      2      1      3     20 
     7      7      3      2      4     21 
     8      8      5      4     22      6 
     9      9      6      1      5     23 
    10     10      7      8      4     24 
    11     11      7     25      4      8 
    12     12      8      9     26      7 
    13     13     11     10     27     12 
    14     14     12     11     28     13 
    15     15     13     12     29     14 
    16     16     14     13     30     15 
    17     17     17     18     31     16 
