LAMMPS data file Created by LigParGen - (Written by Leela S. Dodda)

      27 atoms
      29 bonds
      46 angles
      68 dihedrals
      15 impropers
 
      27 atom types
      29 bond types
      46 angle types
      68 dihedral types
      15 improper types
 
   -8.754710    41.245290 xlo xhi
    0.456710    50.456710 ylo yhi
   -3.609730    46.390270 zlo zhi

Masses

       1     14.007  
       2     12.011  
       3     12.011  
       4     12.011  
       5     12.011  
       6     14.007  
       7     12.011  
       8     12.011  
       9     12.011  
      10     12.011  
      11     12.011  
      12     12.011  
      13     12.011  
      14     14.007  
      15     12.011  
      16     12.011  
      17      1.008  
      18      1.008  
      19      1.008  
      20      1.008  
      21      1.008  
      22      1.008  
      23      1.008  
      24      1.008  
      25      1.008  
      26      1.008  
      27      1.008  

Pair Coeffs 

       1      0.170  3.3000000 
       2      0.070  3.5500000 
       3      0.070  3.5500000 
       4      0.070  3.5500000 
       5      0.080  3.5000000 
       6      0.170  3.2500000 
       7      0.070  3.5500000 
       8      0.070  3.5500000 
       9      0.070  3.5500000 
      10      0.070  3.5500000 
      11      0.070  3.5500000 
      12      0.070  3.5500000 
      13      0.070  3.5500000 
      14      0.170  3.2500000 
      15      0.070  3.5500000 
      16      0.070  3.5500000 
      17      0.000  0.0000000 
      18      0.000  0.0000000 
      19      0.030  2.4200000 
      20      0.030  2.4200000 
      21      0.030  2.4200000 
      22      0.030  2.4200000 
      23      0.030  2.4200000 
      24      0.030  2.4200000 
      25      0.030  2.4200000 
      26      0.030  2.4200000 
      27      0.030  2.4200000 

Bond Coeffs 

       1   481.0000     1.3400 
       2   469.0000     1.4000 
       3   469.0000     1.4000 
       4   469.0000     1.4040 
       5   436.0000     1.3740 
       6   385.0000     1.4400 
       7   469.0000     1.4000 
       8   469.0000     1.4000 
       9   469.0000     1.4000 
      10   469.0000     1.4000 
      11   469.0000     1.4000 
      12   477.0000     1.3430 
      13   410.0000     1.3940 
      14   469.0000     1.4040 
      15   469.0000     1.4000 
      16   434.0000     1.0100 
      17   434.0000     1.0100 
      18   367.0000     1.0800 
      19   367.0000     1.0800 
      20   367.0000     1.0800 
      21   367.0000     1.0800 
      22   367.0000     1.0800 
      23   367.0000     1.0800 
      24   367.0000     1.0800 
      25   367.0000     1.0800 
      26   367.0000     1.0800 
      27   469.0000     1.4000 
      28   488.0000     1.3350 
      29   469.0000     1.4000 

Angle Coeffs 

       1     70.000    120.000
       2     63.000    120.000
       3     63.000    120.000
       4     70.000    108.700
       5     70.000    125.200
       6     70.000    108.700
       7     63.000    120.000
       8     63.000    120.000
       9     63.000    120.000
      10     70.000    108.700
      11     70.000    109.800
      12     70.000    111.000
      13     85.000    134.900
      14     70.000    120.000
      15     35.000    116.000
      16     35.000    116.000
      17     35.000    120.000
      18     35.000    120.000
      19     35.000    120.000
      20     35.000    120.000
      21     35.000    120.000
      22     35.000    120.000
      23     35.000    120.000
      24     35.000    120.000
      25     35.000    120.000
      26     63.000    120.000
      27     63.000    120.000
      28     70.000    111.000
      29     35.000    120.000
      30     63.000    120.000
      31     35.000    120.000
      32     63.000    120.000
      33     35.000    120.000
      34     63.000    120.000
      35     35.000    120.000
      36     70.000    108.700
      37     35.000    120.000
      38     63.000    120.000
      39     35.000    120.000
      40     35.000    120.000
      41     70.000    125.200
      42     35.000    120.000
      43     43.600    106.400
      44     35.000    120.000
      45     70.000    120.000
      46     70.000    110.000

Dihedral Coeffs  

       1      0.000      7.250      0.000      0.000 
       2      0.000      7.250      0.000      0.000 
       3      0.000      7.250      0.000      0.000 
       4      0.000      7.250      0.000      0.000 
       5      0.000      7.250      0.000      0.000 
       6      0.000      7.250      0.000      0.000 
       7      0.000      7.250      0.000      0.000 
       8      0.000      7.250      0.000      0.000 
       9      0.000      2.030      0.000      0.000 
      10      0.000      7.250      0.000      0.000 
      11      0.000      7.250      0.000      0.000 
      12      0.000     10.000      0.000      0.000 
      13      0.000      7.250      0.000      0.000 
      14      0.000      7.250      0.000      0.000 
      15      0.000      7.250      0.000      0.000 
      16      0.000      2.170      0.000      0.000 
      17      0.000      7.250      0.000      0.000 
      18      0.000      7.250      0.000      0.000 
      19      0.000      7.250      0.000      0.000 
      20      0.000      7.250      0.000      0.000 
      21      0.000      7.250      0.000      0.000 
      22      0.000      7.250      0.000      0.000 
      23      0.000      7.250      0.000      0.000 
      24      0.000      7.000      0.000      0.000 
      25      0.000      7.250      0.000      0.000 
      26      0.000      7.250      0.000      0.000 
      27      0.000      7.250      0.000      0.000 
      28      0.000      7.250      0.000      0.000 
      29      0.000      7.250      0.000      0.000 
      30      0.000      7.000      0.000      0.000 
      31      0.000      2.170      0.000      0.000 
      32      0.000      2.170      0.000      0.000 
      33      0.000      7.250      0.000      0.000 
      34      0.000      7.250      0.000      0.000 
      35      0.000      7.250      0.000      0.000 
      36      0.000      7.250      0.000      0.000 
      37      0.000      7.250      0.000      0.000 
      38      0.000     10.000      0.000      0.000 
      39      0.000      7.250      0.000      0.000 
      40      0.000      7.250      0.000      0.000 
      41      0.000      7.250      0.000      0.000 
      42      0.000      7.250      0.000      0.000 
      43      0.000     10.000      0.000      0.000 
      44      0.000      7.250      0.000      0.000 
      45      0.000      7.250      0.000      0.000 
      46      0.000      7.250      0.000      0.000 
      47      0.000      7.250      0.000      0.000 
      48      0.000      2.170      0.000      0.000 
      49      0.000      7.250      0.000      0.000 
      50      0.000      7.250      0.000      0.000 
      51      0.000      7.250      0.000      0.000 
      52      0.000      7.250      0.000      0.000 
      53      0.000      7.250      0.000      0.000 
      54      0.000      7.250      0.000      0.000 
      55      0.000      7.250      0.000      0.000 
      56      0.000      7.250      0.000      0.000 
      57      0.000     10.000      0.000      0.000 
      58      0.000      7.250      0.000      0.000 
      59      0.000      7.250      0.000      0.000 
      60      0.000     10.000      0.000      0.000 
      61      0.000      7.250      0.000      0.000 
      62      0.000      2.030      0.000      0.000 
      63      0.000      2.030      0.000      0.000 
      64      0.000      7.250      0.000      0.000 
      65      0.000      2.030      0.000      0.000 
      66      0.000      7.250      0.000      0.000 
      67      0.000      7.250      0.000      0.000 
      68      0.000     10.000      0.000      0.000 

Improper Coeffs 

       1      2.500      -1       2 
       2      0.000      -1       2 
       3      2.500      -1       2 
       4      2.500      -1       2 
       5      2.500      -1       2 
       6      0.000      -1       2 
       7      2.500      -1       2 
       8      2.500      -1       2 
       9      2.500      -1       2 
      10      2.500      -1       2 
      11      2.500      -1       2 
      12      2.500      -1       2 
      13      2.500      -1       2 
      14      2.500      -1       2 
      15      2.500      -1       2 

Atoms 

     1      1      1 -0.96540000    1.000  1.00000  0.00000
     2      1      2 0.18670000   -0.402  1.00000  0.00000
     3      1      3 -0.14960000   -1.102  1.00000  1.21110
     4      1      4 0.03370000   -2.502  1.13483  1.21160
     5      1      5 0.00880000   -3.190  1.26835  0.00381
     6      1      6 -0.36900000   -4.527  1.37829  0.37495
     7      1      7 0.14680000   -5.672  1.53710 -0.45887
     8      1      8 -0.16560000   -5.681  1.04479 -1.76963
     9      1      9 -0.12400000   -6.790  1.25619 -2.59347
    10      1     10 -0.15920000   -7.893  1.95870 -2.11512
    11      1     11 -0.12230000   -7.889  2.45069 -0.81227
    12      1     12 -0.16990000   -6.808  2.19701  0.03402
    13      1     13 0.14130000   -4.545  1.30414  1.75374
    14      1     14 -0.35140000   -3.350  1.20643  2.28291
    15      1     15 -0.10750000   -2.495  1.36305 -1.21301
    16      1     16 -0.17900000   -1.096  1.25403 -1.18413
    17      1     17 0.42300000    1.407  0.53804  0.80790
    18      1     18 0.42300000    1.410  0.68288 -0.87242
    19      1     19 0.16730000   -0.585  0.89862  2.15876
    20      1     20 0.16610000   -4.860  0.45671 -2.16623
    21      1     21 0.15730000   -6.790  0.86953 -3.60973
    22      1     22 0.15530000   -8.755  2.12091 -2.75755
    23      1     23 0.15760000   -8.732  3.03669 -0.45282
    24      1     24 0.15980000   -6.858  2.57612  1.05160
    25      1     25 0.22650000   -5.465  1.28404  2.32282
    26      1     26 0.15800000   -2.993  1.55698 -2.15544
    27      1     27 0.15180000   -0.546  1.37340 -2.11505

Bonds 

     1      1      2      1
     2      2      3      2
     3      3      4      3
     4      4      5      4
     5      5      6      5
     6      6      7      6
     7      7      8      7
     8      8      9      8
     9      9     10      9
    10     10     11     10
    11     11     12      7
    12     12     13      6
    13     13     14      4
    14     14     15      5
    15     15     16      2
    16     16     17      1
    17     17     18      1
    18     18     19      3
    19     19     20      8
    20     20     21      9
    21     21     22     10
    22     22     23     11
    23     23     24     12
    24     24     25     13
    25     25     26     15
    26     26     27     16
    27     27     12     11
    28     28     14     13
    29     29     16     15

Angles 

     1      1      1      2      3
     2      2      2      3      4
     3      3      3      4      5
     4      4      4      5      6
     5      5      5      6      7
     6      6      6      7      8
     7      7      7      8      9
     8      8      8      9     10
     9      9      9     10     11
    10     10      6      7     12
    11     11      5      6     13
    12     12      3      4     14
    13     13      4      5     15
    14     14      1      2     16
    15     15      2      1     17
    16     16      2      1     18
    17     17      2      3     19
    18     18      7      8     20
    19     19      8      9     21
    20     20      9     10     22
    21     21     10     11     23
    22     22      7     12     24
    23     23      6     13     25
    24     24      5     15     26
    25     25      2     16     27
    26     26     10     11     12
    27     27      7     12     11
    28     28      5      4     14
    29     29      9      8     20
    30     30      8      7     12
    31     31      4      3     19
    32     32      2     16     15
    33     33     12     11     23
    34     34      3      2     16
    35     35     11     12     24
    36     36      6      5     15
    37     37     15     16     27
    38     38      5     15     16
    39     39     11     10     22
    40     40     14     13     25
    41     41      7      6     13
    42     42     16     15     26
    43     43     17      1     18
    44     44     10      9     21
    45     45      6     13     14
    46     46      4     14     13

Dihedrals

     1      1      4      3      2      1 
     2      2      5      4      3      2 
     3      3      6      5      4      3 
     4      4      7      6      5      4 
     5      5      8      7      6      5 
     6      6      9      8      7      6 
     7      7     10      9      8      7 
     8      8     11     10      9      8 
     9      9     17      1      2      3 
    10     10     16      2      3      4 
    11     11      5     15     16      2 
    12     12      6     13     14      4 
    13     13     23     11     10      9 
    14     14     21      9      8      7 
    15     15     12      7      8      9 
    16     16     14      4      3      2 
    17     17     19      3      2      1 
    18     18     20      8      9     10 
    19     19     12     11     10      9 
    20     20     26     15      5      6 
    21     21     15     16      2      1 
    22     22     15      5      6     13 
    23     23     21      9      8     20 
    24     24     16     15      5      6 
    25     25     23     11     12      7 
    26     26     23     11     10     22 
    27     27     27     16     15      5 
    28     28     13      6      7     12 
    29     29     21      9     10     11 
    30     30     16     15      5      4 
    31     31     14      4      5      6 
    32     32     15      5      4     14 
    33     33     13     14      4      3 
    34     34     15     16      2      3 
    35     35     13      6      5      4 
    36     36     24     12      7      8 
    37     37     11     12      7      8 
    38     38     25     13     14      4 
    39     39     20      8      7     12 
    40     40     19      3      4      5 
    41     41     22     10      9      8 
    42     42     15      5      6      7 
    43     43     14     13      6      5 
    44     44     24     12     11     23 
    45     45     22     10     11     12 
    46     46     19      3      4     14 
    47     47     20      8      7      6 
    48     48     15      5      4      3 
    49     49     24     12     11     10 
    50     50     10     11     12      7 
    51     51     19      3      2     16 
    52     52     12      7      6      5 
    53     53     27     16      2      1 
    54     54     24     12      7      6 
    55     55     27     16     15     26 
    56     56     22     10      9     21 
    57     57     14     13      6      7 
    58     58     13      6      7      8 
    59     59     13     14      4      5 
    60     60     25     13      6      7 
    61     61     26     15     16      2 
    62     62     18      1      2      3 
    63     63     17      1      2     16 
    64     64     26     15      5      4 
    65     65     18      1      2     16 
    66     66     27     16      2      3 
    67     67     11     12      7      6 
    68     68     25     13      6      5 

Impropers

     1      1      7     12      6      8 
     2      2      6      5     13      7 
     3      3      4      3      5     14 
     4      4      5      4      6     15 
     5      5      2      1      3     16 
     6      6      1     18     17      2 
     7      7      3      2     19      4 
     8      8      8      9     20      7 
     9      9      9     10     21      8 
    10     10     10      9     11     22 
    11     11     11     10     12     23 
    12     12     12     11      7     24 
    13     13     13     25      6     14 
    14     14     15     26      5     16 
    15     15     16      2     27     15 
