LAMMPS data file Created by LigParGen - (Written by Leela S. Dodda)

      26 atoms
      28 bonds
      44 angles
      66 dihedrals
      14 impropers
 
      26 atom types
      28 bond types
      44 angle types
      66 dihedral types
      14 improper types
 
   -5.748890    44.251110 xlo xhi
   -0.527710    49.472290 ylo yhi
   -0.949180    49.050820 zlo zhi

Masses

       1     12.011  
       2     12.011  
       3     12.011  
       4     12.011  
       5     12.011  
       6     12.011  
       7     14.007  
       8     12.011  
       9     14.007  
      10     12.011  
      11     12.011  
      12     12.011  
      13     12.011  
      14     12.011  
      15     12.011  
      16     15.999  
      17      1.008  
      18      1.008  
      19      1.008  
      20      1.008  
      21      1.008  
      22      1.008  
      23      1.008  
      24      1.008  
      25      1.008  
      26      1.008  

Pair Coeffs 

       1      0.070  3.5500000 
       2      0.070  3.5500000 
       3      0.070  3.5500000 
       4      0.080  3.5000000 
       5      0.070  3.5500000 
       6      0.070  3.5500000 
       7      0.170  3.2500000 
       8      0.070  3.5500000 
       9      0.170  3.2500000 
      10      0.070  3.5500000 
      11      0.070  3.5500000 
      12      0.070  3.5500000 
      13      0.070  3.5500000 
      14      0.070  3.5500000 
      15      0.070  3.5500000 
      16      0.170  3.1200000 
      17      0.030  2.4200000 
      18      0.030  2.4200000 
      19      0.030  2.4200000 
      20      0.030  2.4200000 
      21      0.030  2.4200000 
      22      0.030  2.4200000 
      23      0.030  2.4200000 
      24      0.030  2.4200000 
      25      0.030  2.4200000 
      26      0.000  0.0000000 

Bond Coeffs 

       1   469.0000     1.4000 
       2   469.0000     1.4000 
       3   469.0000     1.4040 
       4   469.0000     1.4040 
       5   469.0000     1.4000 
       6   410.0000     1.3940 
       7   488.0000     1.3350 
       8   436.0000     1.3740 
       9   385.0000     1.4400 
      10   469.0000     1.4000 
      11   469.0000     1.4000 
      12   469.0000     1.4000 
      13   469.0000     1.4000 
      14   469.0000     1.4000 
      15   450.0000     1.3640 
      16   367.0000     1.0800 
      17   367.0000     1.0800 
      18   367.0000     1.0800 
      19   367.0000     1.0800 
      20   367.0000     1.0800 
      21   367.0000     1.0800 
      22   367.0000     1.0800 
      23   367.0000     1.0800 
      24   367.0000     1.0800 
      25   553.0000     0.9450 
      26   469.0000     1.4000 
      27   477.0000     1.3430 
      28   469.0000     1.4000 

Angle Coeffs 

       1     63.000    120.000
       2     63.000    120.000
       3     85.000    134.900
       4     63.000    120.000
       5     70.000    111.000
       6     70.000    110.000
       7     70.000    108.700
       8     70.000    125.200
       9     70.000    108.700
      10     63.000    120.000
      11     63.000    120.000
      12     63.000    120.000
      13     70.000    108.700
      14     70.000    120.000
      15     35.000    120.000
      16     35.000    120.000
      17     35.000    120.000
      18     35.000    120.000
      19     35.000    120.000
      20     35.000    120.000
      21     35.000    120.000
      22     35.000    120.000
      23     35.000    120.000
      24     35.000    113.000
      25     63.000    120.000
      26     35.000    120.000
      27     70.000    125.200
      28     63.000    120.000
      29     63.000    120.000
      30     35.000    120.000
      31     70.000    108.700
      32     35.000    120.000
      33     35.000    120.000
      34     35.000    120.000
      35     35.000    120.000
      36     70.000    109.800
      37     63.000    120.000
      38     35.000    120.000
      39     70.000    111.000
      40     70.000    120.000
      41     35.000    120.000
      42     35.000    120.000
      43     63.000    120.000
      44     70.000    120.000

Dihedral Coeffs  

       1      0.000      7.250      0.000      0.000 
       2      0.000      7.000      0.000      0.000 
       3      0.000      7.250      0.000      0.000 
       4      0.000      7.250      0.000      0.000 
       5      0.000      7.250      0.000      0.000 
       6      0.000      7.250      0.000      0.000 
       7      0.000      7.250      0.000      0.000 
       8      0.000      7.250      0.000      0.000 
       9      0.000      1.682      0.000      0.000 
      10      0.000      7.250      0.000      0.000 
      11      0.000      7.250      0.000      0.000 
      12      0.000      7.250      0.000      0.000 
      13      0.000     10.000      0.000      0.000 
      14      0.000      7.250      0.000      0.000 
      15      0.000      2.170      0.000      0.000 
      16      0.000      7.250      0.000      0.000 
      17      0.000      7.250      0.000      0.000 
      18      0.000      7.250      0.000      0.000 
      19      0.000      7.250      0.000      0.000 
      20      0.000      7.250      0.000      0.000 
      21      0.000      2.170      0.000      0.000 
      22      0.000      7.250      0.000      0.000 
      23      0.000      7.250      0.000      0.000 
      24      0.000      7.250      0.000      0.000 
      25      0.000      7.250      0.000      0.000 
      26      0.000      7.250      0.000      0.000 
      27      0.000      7.250      0.000      0.000 
      28      0.000      7.250      0.000      0.000 
      29      0.000      7.250      0.000      0.000 
      30      0.000      7.250      0.000      0.000 
      31      0.000      7.250      0.000      0.000 
      32      0.000      7.250      0.000      0.000 
      33      0.000      2.170      0.000      0.000 
      34      0.000      7.250      0.000      0.000 
      35      0.000      7.250      0.000      0.000 
      36      0.000     10.000      0.000      0.000 
      37      0.000      7.250      0.000      0.000 
      38      0.000      7.250      0.000      0.000 
      39      0.000      7.250      0.000      0.000 
      40      0.000      7.250      0.000      0.000 
      41      0.000      7.250      0.000      0.000 
      42      0.000      7.250      0.000      0.000 
      43      0.000      7.250      0.000      0.000 
      44      0.000      7.250      0.000      0.000 
      45      0.000      7.250      0.000      0.000 
      46      0.000     10.000      0.000      0.000 
      47      0.000      7.250      0.000      0.000 
      48      0.000      7.250      0.000      0.000 
      49      0.000      7.250      0.000      0.000 
      50      0.000      7.250      0.000      0.000 
      51      0.000      7.250      0.000      0.000 
      52      0.000     10.000      0.000      0.000 
      53      0.000      7.250      0.000      0.000 
      54      0.000      2.170      0.000      0.000 
      55      0.000      7.250      0.000      0.000 
      56      0.000      7.000      0.000      0.000 
      57      0.000      7.250      0.000      0.000 
      58      0.000      7.250      0.000      0.000 
      59      0.000      7.250      0.000      0.000 
      60      0.000     10.000      0.000      0.000 
      61      0.000      1.682      0.000      0.000 
      62      0.000      7.250      0.000      0.000 
      63      0.000      7.250      0.000      0.000 
      64      0.000      7.250      0.000      0.000 
      65      0.000     10.000      0.000      0.000 
      66      0.000      7.250      0.000      0.000 

Improper Coeffs 

       1      2.500      -1       2 
       2      2.500      -1       2 
       3      0.000      -1       2 
       4      2.500      -1       2 
       5      2.500      -1       2 
       6      2.500      -1       2 
       7      2.500      -1       2 
       8      2.500      -1       2 
       9      2.500      -1       2 
      10      2.500      -1       2 
      11      2.500      -1       2 
      12      2.500      -1       2 
      13      2.500      -1       2 
      14      2.500      -1       2 

Atoms 

     1      1      1 -0.16930000    1.000  1.00000  0.00000
     2      1      2 -0.12860000   -0.393  1.00000  0.00000
     3      1      3 -0.14690000   -1.119  1.00000  1.19804
     4      1      4 0.04500000   -0.396  1.00000  2.40417
     5      1      5 -0.00810000    1.001  1.05351  2.40859
     6      1      6 -0.07990000    1.706  1.00000  1.20496
     7      1      7 -0.33830000    1.495  1.15874  3.67844
     8      1      8 0.13020000    0.434  1.17077  4.44915
     9      1      9 -0.36570000   -0.749  1.01968  3.74973
    10      1     10 0.10030000   -2.040  0.90996  4.34271
    11      1     11 -0.12560000   -2.280  1.49457  5.59805
    12      1     12 -0.22680000   -3.524  1.34955  6.21873
    13      1     13 0.12780000   -4.523  0.62177  5.58377
    14      1     14 -0.16150000   -4.296  0.03985  4.34275
    15      1     15 -0.11950000   -3.058  0.18081  3.71732
    16      1     16 -0.49250000   -5.749  0.45438  6.15369
    17      1     17 0.15380000    1.543  1.00119 -0.94214
    18      1     18 0.15130000   -0.927  1.00120 -0.94918
    19      1     19 0.15700000   -2.203  1.04332  1.16960
    20      1     20 0.16650000    2.790  0.96029  1.21801
    21      1     21 0.22610000    0.469  1.22877  5.52833
    22      1     22 0.16210000   -1.529  2.10376  6.09599
    23      1     23 0.16010000   -3.690  1.80940  7.18803
    24      1     24 0.17700000   -5.087 -0.52771  3.86053
    25      1     25 0.17410000   -2.898 -0.34686  2.78232
    26      1     26 0.43130000   -5.730  0.83259  7.04826

Bonds 

     1      1      2      1
     2      2      3      2
     3      3      4      3
     4      4      5      4
     5      5      6      1
     6      6      7      5
     7      7      8      7
     8      8      9      4
     9      9     10      9
    10     10     11     10
    11     11     12     11
    12     12     13     12
    13     13     14     13
    14     14     15     10
    15     15     16     13
    16     16     17      1
    17     17     18      2
    18     18     19      3
    19     19     20      6
    20     20     21      8
    21     21     22     11
    22     22     23     12
    23     23     24     14
    24     24     25     15
    25     25     26     16
    26     26      6      5
    27     27      9      8
    28     28     15     14

Angles 

     1      1      1      2      3
     2      2      2      3      4
     3      3      3      4      5
     4      4      2      1      6
     5      5      4      5      7
     6      6      5      7      8
     7      7      3      4      9
     8      8      4      9     10
     9      9      9     10     11
    10     10     10     11     12
    11     11     11     12     13
    12     12     12     13     14
    13     13      9     10     15
    14     14     12     13     16
    15     15      2      1     17
    16     16      1      2     18
    17     17      2      3     19
    18     18      1      6     20
    19     19      7      8     21
    20     20     10     11     22
    21     21     11     12     23
    22     22     13     14     24
    23     23     10     15     25
    24     24     13     16     26
    25     25     11     10     15
    26     26      3      2     18
    27     27      8      9     10
    28     28      4      5      6
    29     29     13     14     15
    30     30      5      6     20
    31     31      5      4      9
    32     32      4      3     19
    33     33     13     12     23
    34     34     15     14     24
    35     35     12     11     22
    36     36      4      9      8
    37     37     10     15     14
    38     38     14     15     25
    39     39      6      5      7
    40     40     14     13     16
    41     41      9      8     21
    42     42      6      1     17
    43     43      1      6      5
    44     44      7      8      9

Dihedrals

     1      1      4      3      2      1 
     2      2      5      4      3      2 
     3      3      6      1      2      3 
     4      4      8      7      5      4 
     5      5     11     10      9      4 
     6      6     12     11     10      9 
     7      7     13     12     11     10 
     8      8     14     13     12     11 
     9      9     26     16     13     12 
    10     10     22     11     10      9 
    11     11     23     12     13     14 
    12     12     22     11     10     15 
    13     13      9      8      7      5 
    14     14     16     13     12     11 
    15     15      6      5      4      3 
    16     16     20      6      1      2 
    17     17     20      6      1     17 
    18     18     19      3      2      1 
    19     19     13     14     15     10 
    20     20      5      6      1      2 
    21     21      7      5      6      1 
    22     22     24     14     13     12 
    23     23     15     10      9      8 
    24     24     19      3      2     18 
    25     25     23     12     11     10 
    26     26     10      9      4      3 
    27     27     18      2      1     17 
    28     28     14     15     10     11 
    29     29     24     14     15     10 
    30     30     25     15     10     11 
    31     31      8      7      5      6 
    32     32     18      2      1      6 
    33     33      7      5      4      3 
    34     34     20      6      5      7 
    35     35     15     10     11     12 
    36     36     10      9      8      7 
    37     37     23     12     11     22 
    38     38     23     12     13     16 
    39     39     19      3      4      5 
    40     40     18      2      3      4 
    41     41     15     10      9      4 
    42     42     17      1      6      5 
    43     43     11     10      9      8 
    44     44     25     15     14     24 
    45     45     19      3      4      9 
    46     46     21      8      9      4 
    47     47     10      9      4      5 
    48     48     20      6      5      4 
    49     49     25     15     14     13 
    50     50      8      9      4      5 
    51     51     25     15     10      9 
    52     52     21      8      9     10 
    53     53     14     15     10      9 
    54     54      9      4      5      7 
    55     55      4      5      6      1 
    56     56      9      4      3      2 
    57     57     24     14     13     16 
    58     58      8      9      4      3 
    59     59     16     13     14     15 
    60     60     21      8      7      5 
    61     61     26     16     13     14 
    62     62     15     14     13     12 
    63     63      9      4      5      6 
    64     64     17      1      2      3 
    65     65      7      8      9      4 
    66     66     22     11     12     13 

Impropers

     1      1      5      4      6      7 
     2      2      4      9      3      5 
     3      3      9     10      4      8 
     4      4     10      9     11     15 
     5      5     13     12     14     16 
     6      6      1     17      6      2 
     7      7      2      1     18      3 
     8      8      3      2     19      4 
     9      9      6      1     20      5 
    10     10      8      9     21      7 
    11     11     11     10     12     22 
    12     12     12     11     13     23 
    13     13     14     13     15     24 
    14     14     15     25     10     14 
