LAMMPS data file Created by LigParGen - (Written by Leela S. Dodda)

      31 atoms
      33 bonds
      53 angles
      76 dihedrals
      17 impropers
 
      31 atom types
      33 bond types
      53 angle types
      76 dihedral types
      17 improper types
 
   -2.167530    47.832470 xlo xhi
   -0.899780    49.100220 ylo yhi
   -0.938690    49.061310 zlo zhi

Masses

       1     12.011  
       2     12.011  
       3     12.011  
       4     12.011  
       5     12.011  
       6     12.011  
       7     12.011  
       8     14.007  
       9     12.011  
      10     14.007  
      11     14.007  
      12     12.011  
      13     12.011  
      14     12.011  
      15     12.011  
      16     12.011  
      17     12.011  
      18     12.011  
      19     35.450  
      20      1.008  
      21      1.008  
      22      1.008  
      23      1.008  
      24      1.008  
      25      1.008  
      26      1.008  
      27      1.008  
      28      1.008  
      29      1.008  
      30      1.008  
      31      1.008  

Pair Coeffs 

       1      0.070  3.5500000 
       2      0.070  3.5500000 
       3      0.070  3.5500000 
       4      0.080  3.5000000 
       5      0.080  3.5000000 
       6      0.070  3.5500000 
       7      0.070  3.5500000 
       8      0.170  3.2500000 
       9      0.070  3.5500000 
      10      0.170  3.2500000 
      11      0.170  3.2500000 
      12      0.066  3.5000000 
      13      0.070  3.5500000 
      14      0.070  3.5500000 
      15      0.070  3.5500000 
      16      0.070  3.5500000 
      17      0.070  3.5500000 
      18      0.070  3.5500000 
      19      0.300  3.4000000 
      20      0.030  2.4200000 
      21      0.030  2.4200000 
      22      0.030  2.4200000 
      23      0.030  2.4200000 
      24      0.030  2.4200000 
      25      0.000  0.0000000 
      26      0.030  2.5000000 
      27      0.030  2.5000000 
      28      0.030  2.4200000 
      29      0.030  2.4200000 
      30      0.030  2.4200000 
      31      0.030  2.4200000 

Bond Coeffs 

       1   469.0000     1.4000 
       2   469.0000     1.4000 
       3   469.0000     1.4040 
       4   520.0000     1.3700 
       5   469.0000     1.4000 
       6   469.0000     1.4040 
       7   483.0000     1.3390 
       8   502.0000     1.3240 
       9   461.0000     1.3540 
      10   427.0000     1.3810 
      11   337.0000     1.4490 
      12   317.0000     1.5100 
      13   469.0000     1.4000 
      14   469.0000     1.4000 
      15   469.0000     1.4000 
      16   469.0000     1.4000 
      17   469.0000     1.4000 
      18   300.0000     1.7250 
      19   367.0000     1.0800 
      20   367.0000     1.0800 
      21   367.0000     1.0800 
      22   367.0000     1.0800 
      23   367.0000     1.0800 
      24   434.0000     1.0100 
      25   340.0000     1.0900 
      26   340.0000     1.0900 
      27   367.0000     1.0800 
      28   367.0000     1.0800 
      29   367.0000     1.0800 
      30   367.0000     1.0800 
      31   469.0000     1.4040 
      32   502.0000     1.3240 
      33   469.0000     1.4000 

Angle Coeffs 

       1     63.000    120.000
       2     63.000    120.000
       3     85.000    117.300
       4     63.000    120.000
       5     85.000    117.300
       6     70.000    117.300
       7     70.000    118.600
       8     70.000    132.400
       9     70.000    120.000
      10     50.000    118.000
      11     51.650    110.580
      12     70.000    120.000
      13     63.000    120.000
      14     63.000    120.000
      15     63.000    120.000
      16     70.000    120.000
      17     75.000    120.000
      18     35.000    120.000
      19     35.000    120.000
      20     35.000    120.000
      21     35.000    120.000
      22     35.000    115.450
      23     35.000    119.800
      24     35.000    109.500
      25     35.000    109.500
      26     35.000    120.000
      27     35.000    120.000
      28     35.000    120.000
      29     35.000    120.000
      30     64.510    118.990
      31     35.000    120.000
      32     33.000    107.800
      33     38.000    118.400
      34     35.000    120.000
      35     85.000    117.300
      36     70.000    129.100
      37     35.000    120.000
      38     35.000    120.000
      39     70.000    111.000
      40     63.000    120.000
      41     35.000    120.000
      42     35.000    120.000
      43     35.000    120.000
      44     85.000    134.900
      45     35.000    109.500
      46     35.000    120.000
      47     35.000    115.450
      48     75.000    120.000
      49     63.000    120.000
      50     70.000    127.700
      51     63.000    120.000
      52     35.000    109.500
      53     63.000    120.000

Dihedral Coeffs  

       1      0.000      7.250      0.000      0.000 
       2      0.000      7.000      0.000      0.000 
       3      0.000      7.250      0.000      0.000 
       4      0.000      7.000      0.000      0.000 
       5      0.000      7.250      0.000      0.000 
       6      0.000      2.100      0.000      0.000 
       7      0.000      0.000      0.000      0.000 
       8      0.000      0.000      0.000      0.000 
       9      0.000      7.250      0.000      0.000 
      10      0.000      7.250      0.000      0.000 
      11      0.000      7.250      0.000      0.000 
      12      0.000      0.000      0.000      0.000 
      13      0.000      7.250      0.000      0.000 
      14      0.000      7.250      0.000      0.000 
      15      0.000      7.250      0.000      0.000 
      16      0.000      7.250      0.000      0.000 
      17      0.000      7.000      0.000      0.000 
      18      0.000      0.000      0.000      0.000 
      19      0.000      7.250      0.000      0.000 
      20      0.000      7.250      0.000      0.000 
      21      0.000      7.000      0.000      0.000 
      22      0.000      7.250      0.000      0.000 
      23      0.000      7.250      0.000      0.000 
      24      0.000      7.250      0.000      0.000 
      25      0.000      7.250      0.000      0.000 
      26      0.000      7.250      0.000      0.000 
      27      0.000      0.000      0.000      0.000 
      28      0.000      7.250      0.000      0.000 
      29      0.000      7.250      0.000      0.000 
      30      0.000      7.250      0.000      0.000 
      31      0.000      7.250      0.000      0.000 
      32      0.000      7.250      0.000      0.000 
      33      0.000      7.250      0.000      0.000 
      34      0.000      7.250      0.000      0.000 
      35      0.000      7.250      0.000      0.000 
      36      0.000      7.250      0.000      0.000 
      37      0.000      7.000      0.000      0.000 
      38      0.000      7.250      0.000      0.000 
      39      0.000      7.000      0.000      0.000 
      40      0.000      7.250      0.000      0.000 
      41      0.000      2.030      0.000      0.000 
      42      0.000      7.250      0.000      0.000 
      43      0.000      7.000      0.000      0.000 
      44      0.000      0.000      0.000      0.000 
      45      0.000      7.250      0.000      0.000 
      46      0.000      0.000      0.000      0.000 
      47      0.000      7.250      0.000      0.000 
      48      0.000      7.250      0.000      0.000 
      49      0.000      7.250      0.000      0.000 
      50      0.000      7.250      0.000      0.000 
      51      0.000      7.250      0.000      0.000 
      52      0.000      7.250      0.000      0.000 
      53      0.000      7.250      0.000      0.000 
      54      0.000      7.250      0.000      0.000 
      55      0.000      0.000      0.000      0.000 
      56      0.000      7.250      0.000      0.000 
      57      0.000      0.000      0.000      0.000 
      58      0.000      3.651      0.000      0.000 
      59      0.000      7.250      0.000      0.000 
      60      0.000      0.000      0.000      0.000 
      61      0.000      7.250      0.000      0.000 
      62      0.000      7.000      0.000      0.000 
      63      0.000      7.250      0.000      0.000 
      64      0.000      7.250      0.000      0.000 
      65      0.000      7.250      0.000      0.000 
      66      0.000      0.000      0.000      0.000 
      67      0.000      7.250      0.000      0.000 
      68      0.000      7.250      0.000      0.000 
      69      0.000      7.250      0.000      0.000 
      70      0.000      2.100      0.000      0.000 
      71      0.000      7.250      0.000      0.000 
      72      0.000      7.250      0.000      0.000 
      73      0.000      7.250      0.000      0.000 
      74      0.000      0.000      0.000      0.000 
      75      0.000      7.250      0.000      0.000 
      76      0.000      7.250      0.000      0.000 

Improper Coeffs 

       1      2.500      -1       2 
       2      2.500      -1       2 
       3      2.500      -1       2 
       4      2.500      -1       2 
       5      2.500      -1       2 
       6      2.500      -1       2 
       7      2.500      -1       2 
       8      2.500      -1       2 
       9      2.500      -1       2 
      10      2.500      -1       2 
      11      2.500      -1       2 
      12      0.000      -1       2 
      13      0.000      -1       2 
      14      2.500      -1       2 
      15      2.500      -1       2 
      16      2.500      -1       2 
      17      2.500      -1       2 

Atoms 

     1      1      1 -0.16060000    1.000  1.00000  0.00000
     2      1      2 -0.10690000   -0.387  1.00000  0.00000
     3      1      3 -0.14110000   -1.080  1.00000  1.21432
     4      1      4 0.16590000   -0.419  1.00000  2.43787
     5      1      5 -0.16260000    0.983  1.00000  2.44316
     6      1      6 -0.09120000    1.682  1.00000  1.21506
     7      1      7 0.43000000    1.586  0.99839  3.71741
     8      1      8 -0.58140000    0.860  0.99696  4.84835
     9      1      9 0.27240000   -0.471  0.99713  4.70517
    10      1     10 -0.46380000   -1.148  0.99852  3.55720
    11      1     11 -0.69090000    2.993  0.99672  3.81162
    12      1     12 0.07960000    3.525  0.99680  5.16822
    13      1     13 -0.11570000    5.039  0.99310  5.09627
    14      1     14 -0.12880000    5.787  2.04018  5.65330
    15      1     15 -0.14270000    7.182  2.02903  5.58085
    16      1     16 -0.02410000    7.835  0.97073  4.95104
    17      1     17 -0.14410000    7.104 -0.07530  4.39378
    18      1     18 -0.11020000    5.713 -0.06786  4.46750
    19      1     19 -0.06210000    9.554  0.95965  4.86113
    20      1     20 0.15840000    1.549  0.99881 -0.93791
    21      1     21 0.15810000   -0.936  0.99881 -0.93869
    22      1     22 0.17260000   -2.168  0.99880  1.20433
    23      1     23 0.15820000    2.769  0.99879  1.20263
    24      1     24 0.21690000   -1.060  0.99726  5.61560
    25      1     25 0.40930000    3.363  1.77565  3.27478
    26      1     26 0.12100000    3.205  0.10644  5.72444
    27      1     27 0.12100000    3.183  1.88564  5.71385
    28      1     28 0.15720000    5.288  2.87217  6.14638
    29      1     29 0.16760000    7.751  2.84674  6.01521
    30      1     30 0.16780000    7.609 -0.89978  3.89918
    31      1     31 0.16990000    5.144 -0.88851  4.03429

Bonds 

     1      1      2      1
     2      2      3      2
     3      3      4      3
     4      4      5      4
     5      5      6      1
     6      6      7      5
     7      7      8      7
     8      8      9      8
     9      9     10      4
    10     10     11      7
    11     11     12     11
    12     12     13     12
    13     13     14     13
    14     14     15     14
    15     15     16     15
    16     16     17     16
    17     17     18     13
    18     18     19     16
    19     19     20      1
    20     20     21      2
    21     21     22      3
    22     22     23      6
    23     23     24      9
    24     24     25     11
    25     25     26     12
    26     26     27     12
    27     27     28     14
    28     28     29     15
    29     29     30     17
    30     30     31     18
    31     31      6      5
    32     32     10      9
    33     33     18     17

Angles 

     1      1      1      2      3
     2      2      2      3      4
     3      3      3      4      5
     4      4      2      1      6
     5      5      4      5      7
     6      6      5      7      8
     7      7      7      8      9
     8      8      3      4     10
     9      9      5      7     11
    10     10      7     11     12
    11     11     11     12     13
    12     12     12     13     14
    13     13     13     14     15
    14     14     14     15     16
    15     15     15     16     17
    16     16     12     13     18
    17     17     15     16     19
    18     18      2      1     20
    19     19      1      2     21
    20     20      2      3     22
    21     21      1      6     23
    22     22      8      9     24
    23     23      7     11     25
    24     24     11     12     26
    25     25     11     12     27
    26     26     13     14     28
    27     27     14     15     29
    28     28     16     17     30
    29     29     13     18     31
    30     30      8      7     11
    31     31     16     15     29
    32     32     26     12     27
    33     33     12     11     25
    34     34      3      2     21
    35     35      4      5      6
    36     36      8      9     10
    37     37      4      3     22
    38     38      6      1     20
    39     39      4     10      9
    40     40     16     17     18
    41     41      5      6     23
    42     42     17     18     31
    43     43     15     14     28
    44     44      6      5      7
    45     45     13     12     26
    46     46     18     17     30
    47     47     10      9     24
    48     48     17     16     19
    49     49      1      6      5
    50     50      5      4     10
    51     51     14     13     18
    52     52     13     12     27
    53     53     13     18     17

Dihedrals

     1      1      4      3      2      1 
     2      2      5      4      3      2 
     3      3      6      1      2      3 
     4      4      8      7      5      4 
     5      5      9      8      7      5 
     6      6     12     11      7      5 
     7      7     13     12     11      7 
     8      8     14     13     12     11 
     9      9     15     14     13     12 
    10     10     16     15     14     13 
    11     11     17     16     15     14 
    12     12     27     12     11      7 
    13     13     21      2      3      4 
    14     14     22      3      4     10 
    15     15     23      6      1     20 
    16     16     18     17     16     15 
    17     17     10      4      3      2 
    18     18     26     12     13     18 
    19     19     23      6      5      4 
    20     20      5      6      1      2 
    21     21      7      5      6      1 
    22     22     19     16     17     18 
    23     23     11      7      8      9 
    24     24     29     15     14     13 
    25     25     20      1      2      3 
    26     26     21      2      1      6 
    27     27     25     11     12     13 
    28     28     29     15     16     19 
    29     29     21      2      1     20 
    30     30     31     18     17     30 
    31     31     28     14     15     16 
    32     32      9     10      4      5 
    33     33     17     18     13     12 
    34     34     22      3      2     21 
    35     35     17     18     13     14 
    36     36     22      3      2      1 
    37     37      8      7      5      6 
    38     38     30     17     16     19 
    39     39     11      7      5      6 
    40     40      7      5      4      3 
    41     41     25     11      7      8 
    42     42     31     18     13     12 
    43     43     11      7      5      4 
    44     44     18     13     12     11 
    45     45     10      9      8      7 
    46     46     26     12     13     14 
    47     47     29     15     14     28 
    48     48      6      5      4      3 
    49     49     23      6      1      2 
    50     50     29     15     16     17 
    51     51     20      1      6      5 
    52     52     31     18     17     16 
    53     53     28     14     13     12 
    54     54     22      3      4      5 
    55     55     27     12     13     14 
    56     56      8      9     10      4 
    57     57     27     12     11     25 
    58     58     12     11      7      8 
    59     59     24      9      8      7 
    60     60     27     12     13     18 
    61     61     10      4      5      6 
    62     62      4      5      6      1 
    63     63     31     18     13     14 
    64     64     23      6      5      7 
    65     65     19     16     15     14 
    66     66     26     12     11      7 
    67     67     18     13     14     15 
    68     68     16     17     18     13 
    69     69     24      9     10      4 
    70     70     25     11      7      5 
    71     71     28     14     13     18 
    72     72     30     17     16     15 
    73     73     10      4      5      7 
    74     74     26     12     11     25 
    75     75      9     10      4      3 
    76     76     30     17     18     13 

Impropers

     1      1      5      4      6      7 
     2      2      4     10      3      5 
     3      3      7     11      5      8 
     4      4     13     18     12     14 
     5      5     16     17     19     15 
     6      6      1      2     20      6 
     7      7      2      1      3     21 
     8      8      3      2      4     22 
     9      9      6      1      5     23 
    10     10      9     10      8     24 
    11     11     11     25     12      7 
    12     12     12     26     11     13 
    13     13     12     27     13     11 
    14     14     14     28     13     15 
    15     15     15     29     14     16 
    16     16     17     18     30     16 
    17     17     18     17     13     31 
