LAMMPS data file Created by LigParGen - (Written by Leela S. Dodda)

      37 atoms
      39 bonds
      63 angles
      90 dihedrals
      20 impropers
 
      37 atom types
      39 bond types
      63 angle types
      90 dihedral types
      20 improper types
 
   -7.940830    42.059170 xlo xhi
   -0.742910    49.257090 ylo yhi
   -7.336540    42.663460 zlo zhi

Masses

       1     12.011  
       2     12.011  
       3     12.011  
       4     12.011  
       5     12.011  
       6     12.011  
       7     12.011  
       8     12.011  
       9     12.011  
      10     12.011  
      11     14.007  
      12     15.999  
      13     12.011  
      14     12.011  
      15     15.999  
      16     15.999  
      17     12.011  
      18     12.011  
      19     12.011  
      20     12.011  
      21     12.011  
      22     12.011  
      23      1.008  
      24      1.008  
      25      1.008  
      26      1.008  
      27      1.008  
      28      1.008  
      29      1.008  
      30      1.008  
      31      1.008  
      32      1.008  
      33      1.008  
      34      1.008  
      35      1.008  
      36      1.008  
      37      1.008  

Pair Coeffs 

       1      0.066  3.5000000 
       2      0.070  3.5500000 
       3      0.070  3.5500000 
       4      0.070  3.5500000 
       5      0.080  3.5000000 
       6      0.080  3.5000000 
       7      0.070  3.5500000 
       8      0.070  3.5500000 
       9      0.070  3.5500000 
      10      0.070  3.5500000 
      11      0.170  3.2500000 
      12      0.170  3.1200000 
      13      0.066  3.5000000 
      14      0.070  3.5500000 
      15      0.210  2.9600000 
      16      0.170  3.1200000 
      17      0.070  3.5500000 
      18      0.070  3.5500000 
      19      0.070  3.5500000 
      20      0.070  3.5500000 
      21      0.070  3.5500000 
      22      0.070  3.5500000 
      23      0.030  2.5000000 
      24      0.030  2.5000000 
      25      0.030  2.5000000 
      26      0.030  2.4200000 
      27      0.030  2.4200000 
      28      0.030  2.4200000 
      29      0.000  0.0000000 
      30      0.030  2.5000000 
      31      0.030  2.5000000 
      32      0.000  0.0000000 
      33      0.030  2.4200000 
      34      0.030  2.4200000 
      35      0.030  2.4200000 
      36      0.030  2.4200000 
      37      0.030  2.4200000 

Bond Coeffs 

       1   317.0000     1.5100 
       2   469.0000     1.4000 
       3   469.0000     1.4000 
       4   469.0000     1.4040 
       5   520.0000     1.3700 
       6   469.0000     1.4000 
       7   469.0000     1.4000 
       8   469.0000     1.4000 
       9   469.0000     1.4000 
      10   461.0000     1.3540 
      11   450.0000     1.3640 
      12   317.0000     1.5100 
      13   317.0000     1.5220 
      14   570.0000     1.2290 
      15   450.0000     1.3640 
      16   385.0000     1.4600 
      17   469.0000     1.4000 
      18   469.0000     1.4000 
      19   469.0000     1.4000 
      20   469.0000     1.4000 
      21   469.0000     1.4000 
      22   340.0000     1.0900 
      23   340.0000     1.0900 
      24   340.0000     1.0900 
      25   367.0000     1.0800 
      26   367.0000     1.0800 
      27   367.0000     1.0800 
      28   553.0000     0.9450 
      29   340.0000     1.0900 
      30   340.0000     1.0900 
      31   553.0000     0.9450 
      32   367.0000     1.0800 
      33   367.0000     1.0800 
      34   367.0000     1.0800 
      35   367.0000     1.0800 
      36   367.0000     1.0800 
      37   469.0000     1.4040 
      38   483.0000     1.3390 
      39   469.0000     1.4000 

Angle Coeffs 

       1     70.000    120.000
       2     63.000    120.000
       3     63.000    120.000
       4     85.000    117.300
       5     70.000    120.000
       6     85.000    117.300
       7     63.000    120.000
       8     63.000    120.000
       9     70.000    132.400
      10     70.000    120.000
      11     70.000    120.000
      12     63.000    112.000
      13     80.000    120.400
      14     70.000    108.000
      15     63.000    120.000
      16     63.000    120.000
      17     63.000    120.000
      18     63.000    120.000
      19     63.000    120.000
      20     63.000    120.000
      21     35.000    109.500
      22     35.000    109.500
      23     35.000    109.500
      24     35.000    120.000
      25     35.000    120.000
      26     35.000    120.000
      27     35.000    113.000
      28     35.000    109.500
      29     35.000    109.500
      30     35.000    113.000
      31     35.000    120.000
      32     35.000    120.000
      33     35.000    120.000
      34     35.000    120.000
      35     35.000    120.000
      36     35.000    120.000
      37     80.000    121.000
      38     70.000    120.000
      39     70.000    120.000
      40     35.000    109.500
      41     63.000    120.000
      42     33.000    107.800
      43     85.000    117.300
      44     35.000    120.000
      45     35.000    120.000
      46     70.000    127.700
      47     63.000    120.000
      48     35.000    120.000
      49     70.000    112.200
      50     35.000    120.000
      51     33.000    107.800
      52     63.000    120.000
      53     35.000    109.500
      54     85.000    134.900
      55     35.000    120.000
      56     70.000    124.000
      57     33.000    107.800
      58     63.000    120.000
      59     35.000    120.000
      60     63.000    120.000
      61     63.000    120.000
      62     35.000    120.000
      63     33.000    107.800

Dihedral Coeffs  

       1      0.000      7.250      0.000      0.000 
       2      0.000      7.250      0.000      0.000 
       3      0.000      7.000      0.000      0.000 
       4      0.000      2.170      0.000      0.000 
       5      0.000      7.250      0.000      0.000 
       6      0.000      0.000      0.000      0.000 
       7      0.000      0.546      0.000      0.000 
       8      0.000      2.170      0.000      0.000 
       9      0.000      7.250      0.000      0.000 
      10      0.000      7.250      0.000      0.000 
      11      0.000      7.250      0.000      0.000 
      12      0.000      0.000      0.000      0.000 
      13      0.000      1.682      0.000      0.000 
      14      1.500      5.500      0.000      0.000 
      15      0.000      7.250      0.000      0.000 
      16      0.000      7.250      0.000      0.000 
      17      0.000      7.250      0.000      0.000 
      18      0.000      7.250      0.000      0.000 
      19      0.000      7.000      0.000      0.000 
      20      0.000      7.250      0.000      0.000 
      21      0.000      7.250      0.000      0.000 
      22      0.000      7.250      0.000      0.000 
      23      0.000      7.250      0.000      0.000 
      24      0.000      7.250      0.000      0.000 
      25      0.000      7.250      0.000      0.000 
      26      0.000      7.250      0.000      0.000 
      27      0.000      7.250      0.000      0.000 
      28      0.000      7.250      0.000      0.000 
      29      0.000      7.250      0.000      0.000 
      30      0.000      7.250      0.000      0.000 
      31      0.000      7.250      0.000      0.000 
      32      0.000      0.000      0.000      0.000 
      33      0.000      7.250      0.000      0.000 
      34      0.000      7.250      0.000      0.000 
      35      0.000      7.250      0.000      0.000 
      36      0.000      2.170      0.000      0.000 
      37      0.000      7.000      0.000      0.000 
      38      0.000      0.000      0.000      0.000 
      39      0.000      0.000      0.000      0.000 
      40      0.000      0.000      0.000      0.000 
      41      0.000      7.250      0.000      0.000 
      42      0.000      7.250      0.000      0.000 
      43      0.000      7.250      0.000      0.000 
      44      0.000      7.250      0.000      0.000 
      45      0.000      7.250      0.000      0.000 
      46      0.000      7.250      0.000      0.000 
      47      0.000      1.682      0.000      0.000 
      48      0.000      0.000      0.000      0.000 
      49      0.000      0.000      0.000      0.000 
      50      0.000      7.250      0.000      0.000 
      51      0.000      0.000      0.000      0.000 
      52      0.000      0.000      0.000      0.000 
      53      0.000      7.250      0.000      0.000 
      54      0.000      7.250      0.000      0.000 
      55      0.000      7.250      0.000      0.000 
      56      0.000      7.250      0.000      0.000 
      57      0.000      0.000      0.000      0.000 
      58      0.000      7.250      0.000      0.000 
      59      0.000      7.250      0.000      0.000 
      60      0.000      0.000      0.000      0.000 
      61      0.000      0.000      0.000      0.000 
      62      0.000      7.250      0.000      0.000 
      63      0.000      7.250      0.000      0.000 
      64      0.000      7.250      0.000      0.000 
      65      0.000      7.250      0.000      0.000 
      66      0.000      7.250      0.000      0.000 
      67      0.000      7.000      0.000      0.000 
      68      0.000      7.250      0.000      0.000 
      69      0.000      7.250      0.000      0.000 
      70      0.000      7.250      0.000      0.000 
      71      0.000      5.500      0.000      0.000 
      72      0.000      7.250      0.000      0.000 
      73      0.000      0.000      0.000      0.000 
      74      0.000      7.250      0.000      0.000 
      75      0.000      2.170      0.000      0.000 
      76      0.000      7.250      0.000      0.000 
      77      0.000      7.250      0.000      0.000 
      78      0.000      7.250      0.000      0.000 
      79      0.000      0.000      0.000      0.000 
      80      0.000      7.250      0.000      0.000 
      81      0.000      7.250      0.000      0.000 
      82      0.000      2.170      0.000      0.000 
      83      0.000      7.250      0.000      0.000 
      84      0.000      0.546      0.000      0.000 
      85      0.000      0.000      0.000      0.000 
      86      0.000      7.250      0.000      0.000 
      87      0.000      7.250      0.000      0.000 
      88      0.000      7.250      0.000      0.000 
      89      0.000      7.250      0.000      0.000 
      90      0.000      7.250      0.000      0.000 

Improper Coeffs 

       1      2.500      -1       2 
       2      2.500      -1       2 
       3      2.500      -1       2 
       4      2.500      -1       2 
       5      2.500      -1       2 
       6     10.500      -1       2 
       7      2.500      -1       2 
       8      2.500      -1       2 
       9      0.000      -1       2 
      10      0.000      -1       2 
      11      2.500      -1       2 
      12      2.500      -1       2 
      13      2.500      -1       2 
      14      0.000      -1       2 
      15      0.000      -1       2 
      16      2.500      -1       2 
      17      2.500      -1       2 
      18      2.500      -1       2 
      19      2.500      -1       2 
      20      2.500      -1       2 

Atoms 

     1      1      1 -0.19580000    1.000  1.00000  0.00000
     2      1      2 -0.09350000   -0.501  1.00000  0.00000
     3      1      3 -0.11710000   -1.214  1.00000  1.18659
     4      1      4 -0.13450000   -2.603  1.00154  1.14002
     5      1      5 0.16010000   -3.310  1.00308 -0.05589
     6      1      6 -0.10940000   -2.636  1.00316 -1.29567
     7      1      7 -0.12070000   -1.209  1.00154 -1.21608
     8      1      8 0.07660000   -3.461  1.00321 -2.49639
     9      1      9 -0.19590000   -4.905  1.00319 -2.34466
    10      1     10 0.34710000   -5.388  0.94736 -1.04090
    11      1     11 -0.43420000   -4.628  1.00292  0.05865
    12      1     12 -0.49850000   -6.683  0.71749 -0.68201
    13      1     13 -0.19870000   -5.801  0.91586 -3.57757
    14      1     14 0.48250000   -7.196  1.49874 -3.59978
    15      1     15 -0.41740000   -7.941  1.60091 -2.63681
    16      1     16 -0.53890000   -7.616  1.81582 -4.84642
    17      1     17 -0.05320000   -2.791  0.94235 -3.86007
    18      1     18 -0.14400000   -3.191  0.02020 -4.84976
    19      1     19 -0.15450000   -2.576 -0.04316 -6.11016
    20      1     20 -0.13350000   -1.470  0.74429 -6.38356
    21      1     21 -0.14980000   -1.029  1.64605 -5.42204
    22      1     22 -0.12630000   -1.698  1.76214 -4.19981
    23      1     23 0.09510000    1.401  0.84266  1.00690
    24      1     24 0.09510000    1.374  1.96094 -0.36768
    25      1     25 0.09510000    1.378  0.19577 -0.63828
    26      1     26 0.15680000   -0.711  0.99766  2.15000
    27      1     27 0.17560000   -3.165  1.00033  2.07393
    28      1     28 0.14910000   -0.605  1.00020 -2.11651
    29      1     29 0.47500000   -7.306  1.05618 -1.35208
    30      1     30 0.13630000   -5.923 -0.14640 -3.82736
    31      1     31 0.13630000   -5.292  1.43762 -4.38646
    32      1     32 0.46400000   -6.959  1.68374 -5.55308
    33      1     33 0.14490000   -3.999 -0.68077 -4.66415
    34      1     34 0.15450000   -2.943 -0.74291 -6.85937
    35      1     35 0.15560000   -0.953  0.65617 -7.33654
    36      1     36 0.15680000   -0.156  2.26408 -5.62515
    37      1     37 0.15930000   -1.311  2.49289 -3.49032

Bonds 

     1      1      2      1
     2      2      3      2
     3      3      4      3
     4      4      5      4
     5      5      6      5
     6      6      7      2
     7      7      8      6
     8      8      9      8
     9      9     10      9
    10     10     11      5
    11     11     12     10
    12     12     13      9
    13     13     14     13
    14     14     15     14
    15     15     16     14
    16     16     17      8
    17     17     18     17
    18     18     19     18
    19     19     20     19
    20     20     21     20
    21     21     22     17
    22     22     23      1
    23     23     24      1
    24     24     25      1
    25     25     26      3
    26     26     27      4
    27     27     28      7
    28     28     29     12
    29     29     30     13
    30     30     31     13
    31     31     32     16
    32     32     33     18
    33     33     34     19
    34     34     35     20
    35     35     36     21
    36     36     37     22
    37     37      7      6
    38     38     11     10
    39     39     22     21

Angles 

     1      1      1      2      3
     2      2      2      3      4
     3      3      3      4      5
     4      4      4      5      6
     5      5      1      2      7
     6      6      5      6      8
     7      7      6      8      9
     8      8      8      9     10
     9      9      4      5     11
    10     10      9     10     12
    11     11      8      9     13
    12     12      9     13     14
    13     13     13     14     15
    14     14     13     14     16
    15     15      6      8     17
    16     16      8     17     18
    17     17     17     18     19
    18     18     18     19     20
    19     19     19     20     21
    20     20      8     17     22
    21     21      2      1     23
    22     22      2      1     24
    23     23      2      1     25
    24     24      2      3     26
    25     25      3      4     27
    26     26      2      7     28
    27     27     10     12     29
    28     28      9     13     30
    29     29      9     13     31
    30     30     14     16     32
    31     31     17     18     33
    32     32     18     19     34
    33     33     19     20     35
    34     34     20     21     36
    35     35     17     22     37
    36     36     19     18     33
    37     37     15     14     16
    38     38     11     10     12
    39     39     10      9     13
    40     40     14     13     30
    41     41      2      7      6
    42     42     23      1     25
    43     43      5      6      7
    44     44     22     21     36
    45     45     21     20     35
    46     46      6      5     11
    47     47     17     22     21
    48     48     20     19     34
    49     49      5     11     10
    50     50     21     22     37
    51     51     30     13     31
    52     52     20     21     22
    53     53     14     13     31
    54     54      7      6      8
    55     55      6      7     28
    56     56      9     10     11
    57     57     23      1     24
    58     58      3      2      7
    59     59      5      4     27
    60     60      9      8     17
    61     61     18     17     22
    62     62      4      3     26
    63     63     24      1     25

Dihedrals

     1      1      4      3      2      1 
     2      2      5      4      3      2 
     3      3      6      5      4      3 
     4      4      9      8      6      5 
     5      5     10      9      8      6 
     6      6     14     13      9      8 
     7      7     15     14     13      9 
     8      8     18     17      8      6 
     9      9     19     18     17      8 
    10     10     20     19     18     17 
    11     11     21     20     19     18 
    12     12     23      1      2      3 
    13     13     29     12     10      9 
    14     14     32     16     14     13 
    15     15     28      7      6      8 
    16     16     28      7      2      1 
    17     17      6      7      2      1 
    18     18     12     10     11      5 
    19     19      8      6      7      2 
    20     20     37     22     17      8 
    21     21     26      3      2      7 
    22     22      8      6      5      4 
    23     23     22     17     18     19 
    24     24     36     21     20     19 
    25     25     27      4      5      6 
    26     26     36     21     20     35 
    27     27     26      3      2      1 
    28     28     28      7      6      5 
    29     29     34     19     18     33 
    30     30     17      8      6      7 
    31     31     20     21     22     17 
    32     32     14     13      9     10 
    33     33     37     22     21     36 
    34     34     27      4      5     11 
    35     35     34     19     18     17 
    36     36     18     17      8      9 
    37     37     11      5      4      3 
    38     38     31     13     14     15 
    39     39     30     13     14     16 
    40     40     31     13      9     10 
    41     41     21     22     17      8 
    42     42     11     10      9      8 
    43     43     26      3      4      5 
    44     44     37     22     21     20 
    45     45     33     18     17     22 
    46     46     21     22     17     18 
    47     47     29     12     10     11 
    48     48     23      1      2      7 
    49     49     25      1      2      7 
    50     50     33     18     19     20 
    51     51     30     13     14     15 
    52     52     24      1      2      3 
    53     53     17      8      6      5 
    54     54     35     20     19     34 
    55     55     13      9     10     12 
    56     56     17      8      9     13 
    57     57     24      1      2      7 
    58     58     27      4      3     26 
    59     59     35     20     21     22 
    60     60     25      1      2      3 
    61     61     31     13      9      8 
    62     62     27      4      3      2 
    63     63      9      8      6      7 
    64     64     28      7      2      3 
    65     65     22     21     20     19 
    66     66     36     21     22     17 
    67     67      5      6      7      2 
    68     68     10     11      5      6 
    69     69     10     11      5      4 
    70     70     35     20     19     18 
    71     71     32     16     14     15 
    72     72     17      8      9     10 
    73     73     30     13      9      8 
    74     74     13      9     10     11 
    75     75     22     17      8      6 
    76     76     33     18     17      8 
    77     77      6      7      2      3 
    78     78      7      2      3      4 
    79     79     31     13     14     16 
    80     80     34     19     20     21 
    81     81     12     10      9      8 
    82     82     22     17      8      9 
    83     83     11      5      6      8 
    84     84     16     14     13      9 
    85     85     30     13      9     10 
    86     86      9     10     11      5 
    87     87     13      9      8      6 
    88     88      7      6      5      4 
    89     89     11      5      6      7 
    90     90     37     22     17     18 

Impropers

     1      1      2      1      3      7 
     2      2      6      5      7      8 
     3      3      5     11      4      6 
     4      4     10      9     11     12 
     5      5      9     10     13      8 
     6      6     14     13     15     16 
     7      7      8     17      9      6 
     8      8     17     18     22      8 
     9      9      1      2     23     24 
    10     10      1     25     23      2 
    11     11      3     26      4      2 
    12     12      4     27      5      3 
    13     13      7      2     28      6 
    14     14     13      9     30     14 
    15     15     13      9     14     31 
    16     16     18     33     19     17 
    17     17     19     34     20     18 
    18     18     20     35     21     19 
    19     19     21     20     36     22 
    20     20     22     17     21     37 
