LAMMPS data file Created by LigParGen - (Written by Leela S. Dodda)

      32 atoms
      34 bonds
      54 angles
      73 dihedrals
      17 impropers
 
      32 atom types
      34 bond types
      54 angle types
      73 dihedral types
      17 improper types
 
   -9.661450    40.338550 xlo xhi
   -4.390190    45.609810 ylo yhi
   -1.027020    48.972980 zlo zhi

Masses

       1     12.011  
       2     15.999  
       3     12.011  
       4     12.011  
       5     12.011  
       6     12.011  
       7     12.011  
       8     12.011  
       9     14.007  
      10     12.011  
      11     12.011  
      12     12.011  
      13     12.011  
      14     12.011  
      15     12.011  
      16     12.011  
      17     14.007  
      18     12.011  
      19     14.007  
      20      1.008  
      21      1.008  
      22      1.008  
      23      1.008  
      24      1.008  
      25      1.008  
      26      1.008  
      27      1.008  
      28      1.008  
      29      1.008  
      30      1.008  
      31      1.008  
      32      1.008  

Pair Coeffs 

       1      0.066  3.5000000 
       2      0.140  2.9000000 
       3      0.070  3.5500000 
       4      0.070  3.5500000 
       5      0.070  3.5500000 
       6      0.070  3.5500000 
       7      0.070  3.5500000 
       8      0.070  3.5500000 
       9      0.170  3.2500000 
      10      0.070  3.5500000 
      11      0.080  3.5000000 
      12      0.070  3.5500000 
      13      0.070  3.5500000 
      14      0.070  3.5500000 
      15      0.070  3.5500000 
      16      0.080  3.5000000 
      17      0.170  3.2500000 
      18      0.070  3.5500000 
      19      0.170  3.2500000 
      20      0.030  2.5000000 
      21      0.030  2.5000000 
      22      0.030  2.5000000 
      23      0.030  2.4200000 
      24      0.030  2.4200000 
      25      0.030  2.4200000 
      26      0.030  2.4200000 
      27      0.000  0.0000000 
      28      0.030  2.4200000 
      29      0.030  2.4200000 
      30      0.030  2.4200000 
      31      0.030  2.4200000 
      32      0.030  2.4200000 

Bond Coeffs 

       1   320.0000     1.4100 
       2   450.0000     1.3640 
       3   469.0000     1.4000 
       4   469.0000     1.4000 
       5   469.0000     1.4000 
       6   469.0000     1.4000 
       7   469.0000     1.4000 
       8   427.0000     1.3810 
       9   427.0000     1.3810 
      10   469.0000     1.4040 
      11   469.0000     1.4040 
      12   469.0000     1.4000 
      13   469.0000     1.4000 
      14   469.0000     1.4000 
      15   520.0000     1.3700 
      16   461.0000     1.3540 
      17   502.0000     1.3240 
      18   483.0000     1.3390 
      19   340.0000     1.0900 
      20   340.0000     1.0900 
      21   340.0000     1.0900 
      22   367.0000     1.0800 
      23   367.0000     1.0800 
      24   367.0000     1.0800 
      25   367.0000     1.0800 
      26   434.0000     1.0100 
      27   367.0000     1.0800 
      28   367.0000     1.0800 
      29   367.0000     1.0800 
      30   367.0000     1.0800 
      31   367.0000     1.0800 
      32   469.0000     1.4000 
      33   469.0000     1.4040 
      34   502.0000     1.3240 

Angle Coeffs 

       1     75.000    111.000
       2     70.000    120.000
       3     63.000    120.000
       4     63.000    120.000
       5     63.000    120.000
       6     70.000    120.000
       7     70.000    120.000
       8     70.000    118.000
       9     70.000    120.000
      10     85.000    134.900
      11     63.000    120.000
      12     63.000    120.000
      13     63.000    120.000
      14     85.000    117.300
      15     70.000    127.700
      16     70.000    111.000
      17     64.510    118.990
      18     35.000    109.500
      19     35.000    109.500
      20     35.000    109.500
      21     35.000    120.000
      22     35.000    120.000
      23     35.000    120.000
      24     35.000    120.000
      25     35.000    119.800
      26     35.000    120.000
      27     35.000    120.000
      28     35.000    120.000
      29     35.000    120.000
      30     35.000    115.450
      31     33.000    107.800
      32     35.000    120.000
      33     63.000    120.000
      34     35.000    120.000
      35     35.000    120.000
      36     35.000    120.000
      37     35.000    120.000
      38     70.000    120.000
      39     85.000    117.300
      40     63.000    120.000
      41     35.000    120.000
      42     70.000    118.600
      43     70.000    117.300
      44     35.000    115.450
      45     70.000    129.100
      46     85.000    117.300
      47     63.000    120.000
      48     35.000    120.000
      49     35.000    120.000
      50     70.000    132.400
      51     33.000    107.800
      52     33.000    107.800
      53     63.000    120.000
      54     35.000    119.800

Dihedral Coeffs  

       1      0.000      3.000      0.000      0.000 
       2      0.000      7.250      0.000      0.000 
       3      0.000      7.250      0.000      0.000 
       4      0.000      7.250      0.000      0.000 
       5      0.000      2.100      0.000      0.000 
       6      0.000      2.100      0.000      0.000 
       7      0.000      7.000      0.000      0.000 
       8      0.000      7.000      0.000      0.000 
       9      0.000      7.250      0.000      0.000 
      10      0.000      7.250      0.000      0.000 
      11      0.000      7.250      0.000      0.000 
      12      0.000      0.000      0.760      0.000 
      13      0.000      7.250      0.000      0.000 
      14      0.000      2.100      0.000      0.000 
      15      0.000      7.000      0.000      0.000 
      16      0.000      7.250      0.000      0.000 
      17      0.000      7.250      0.000      0.000 
      18      0.000      7.250      0.000      0.000 
      19      0.000      7.250      0.000      0.000 
      20      0.000      7.000      0.000      0.000 
      21      0.000      7.250      0.000      0.000 
      22      0.000      7.250      0.000      0.000 
      23      0.000      7.250      0.000      0.000 
      24      0.000      2.100      0.000      0.000 
      25      0.000      6.089      0.000      0.000 
      26      0.000      7.250      0.000      0.000 
      27      0.000      7.250      0.000      0.000 
      28      0.000      7.000      0.000      0.000 
      29      0.000      7.000      0.000      0.000 
      30      0.000      7.250      0.000      0.000 
      31      0.000      7.250      0.000      0.000 
      32      0.000      7.250      0.000      0.000 
      33      0.000      7.250      0.000      0.000 
      34      0.000      7.000      0.000      0.000 
      35      0.000      7.000      0.000      0.000 
      36      0.000      7.250      0.000      0.000 
      37      0.000      7.250      0.000      0.000 
      38      0.000      7.250      0.000      0.000 
      39      0.000      7.250      0.000      0.000 
      40      0.000      7.250      0.000      0.000 
      41      0.000      7.250      0.000      0.000 
      42      0.000      7.250      0.000      0.000 
      43      0.000      7.250      0.000      0.000 
      44      0.000      2.100      0.000      0.000 
      45      0.000      7.250      0.000      0.000 
      46      0.000      7.250      0.000      0.000 
      47      0.000      7.250      0.000      0.000 
      48      0.000      7.250      0.000      0.000 
      49      0.000      7.250      0.000      0.000 
      50      0.000      7.250      0.000      0.000 
      51      0.000      2.030      0.000      0.000 
      52      0.000      7.250      0.000      0.000 
      53      0.000      7.250      0.000      0.000 
      54      0.000      7.250      0.000      0.000 
      55      0.000      7.250      0.000      0.000 
      56      0.000      7.250      0.000      0.000 
      57      0.000      7.250      0.000      0.000 
      58      0.000      7.250      0.000      0.000 
      59      0.000      7.250      0.000      0.000 
      60      0.000      7.250      0.000      0.000 
      61      0.000      7.250      0.000      0.000 
      62      0.000      7.250      0.000      0.000 
      63      0.000      7.250      0.000      0.000 
      64      0.000      7.250      0.000      0.000 
      65      0.000      3.000      0.000      0.000 
      66      0.000      0.000      0.760      0.000 
      67      0.000      7.250      0.000      0.000 
      68      0.000      7.250      0.000      0.000 
      69      0.000      7.250      0.000      0.000 
      70      0.000      7.250      0.000      0.000 
      71      0.000      0.000      0.760      0.000 
      72      0.000      2.100      0.000      0.000 
      73      0.000      7.250      0.000      0.000 

Improper Coeffs 

       1      2.500      -1       2 
       2      2.500      -1       2 
       3      2.500      -1       2 
       4      2.500      -1       2 
       5      2.500      -1       2 
       6      0.000      -1       2 
       7      0.000      -1       2 
       8      2.500      -1       2 
       9      2.500      -1       2 
      10      2.500      -1       2 
      11      2.500      -1       2 
      12      2.500      -1       2 
      13      2.500      -1       2 
      14      2.500      -1       2 
      15      2.500      -1       2 
      16      2.500      -1       2 
      17      2.500      -1       2 

Atoms 

     1      1      1 -0.05270000    1.000  1.00000  0.00000
     2      1      2 -0.30240000   -0.423  1.00000  0.00000
     3      1      3 0.15040000   -1.003  1.00000  1.24097
     4      1      4 -0.24500000   -0.454  1.59042  2.37542
     5      1      5 -0.08520000   -1.138  1.52859  3.59082
     6      1      6 -0.23170000   -2.371  0.87621  3.66970
     7      1      7 0.22430000   -2.935  0.27826  2.53652
     8      1      8 -0.18500000   -2.262  0.39803  1.31491
     9      1      9 -0.72140000   -4.200 -0.34389  2.61987
    10      1     10 0.44400000   -4.600 -1.50325  1.90355
    11      1     11 -0.15570000   -5.970 -1.73283  1.67868
    12      1     12 -0.08660000   -7.016 -0.85000  2.05164
    13      1     13 -0.16110000   -8.341 -1.14210  1.73604
    14      1     14 -0.10470000   -8.633 -2.31218  1.04862
    15      1     15 -0.14270000   -7.600 -3.17872  0.68334
    16      1     16 0.16550000   -6.277 -2.93827  1.03242
    17      1     17 -0.45860000   -5.354 -3.85877  0.73936
    18      1     18 0.25120000   -4.096 -3.57862  1.09505
    19      1     19 -0.52120000   -3.653 -2.37410  1.50921
    20      1     20 0.09250000    1.334  0.82505 -1.02702
    21      1     21 0.09250000    1.395  0.19091  0.62430
    22      1     22 0.09250000    1.395  1.97088  0.31417
    23      1     23 0.15360000    0.501  2.10403  2.34201
    24      1     24 0.15320000   -0.708  1.99086  4.47543
    25      1     25 0.14520000   -2.882  0.84120  4.62738
    26      1     26 0.17800000   -2.716  0.01948  0.40184
    27      1     27 0.43210000   -4.534 -0.42345  3.57462
    28      1     28 0.16500000   -6.789  0.08881  2.55258
    29      1     29 0.15930000   -9.137 -0.45956  2.02453
    30      1     30 0.15870000   -9.661 -2.55546  0.79307
    31      1     31 0.17280000   -7.834 -4.07051  0.10610
    32      1     32 0.22290000   -3.379 -4.39019  1.04542

Bonds 

     1      1      2      1
     2      2      3      2
     3      3      4      3
     4      4      5      4
     5      5      6      5
     6      6      7      6
     7      7      8      3
     8      8      9      7
     9      9     10      9
    10     10     11     10
    11     11     12     11
    12     12     13     12
    13     13     14     13
    14     14     15     14
    15     15     16     11
    16     16     17     16
    17     17     18     17
    18     18     19     10
    19     19     20      1
    20     20     21      1
    21     21     22      1
    22     22     23      4
    23     23     24      5
    24     24     25      6
    25     25     26      8
    26     26     27      9
    27     27     28     12
    28     28     29     13
    29     29     30     14
    30     30     31     15
    31     31     32     18
    32     32      8      7
    33     33     16     15
    34     34     19     18

Angles 

     1      1      1      2      3
     2      2      2      3      4
     3      3      3      4      5
     4      4      4      5      6
     5      5      5      6      7
     6      6      2      3      8
     7      7      6      7      9
     8      8      7      9     10
     9      9      9     10     11
    10     10     10     11     12
    11     11     11     12     13
    12     12     12     13     14
    13     13     13     14     15
    14     14     10     11     16
    15     15     11     16     17
    16     16     16     17     18
    17     17      9     10     19
    18     18      2      1     20
    19     19      2      1     21
    20     20      2      1     22
    21     21      3      4     23
    22     22      4      5     24
    23     23      5      6     25
    24     24      3      8     26
    25     25      7      9     27
    26     26     11     12     28
    27     27     12     13     29
    28     28     13     14     30
    29     29     14     15     31
    30     30     17     18     32
    31     31     21      1     22
    32     32      6      5     24
    33     33      3      8      7
    34     34     14     13     29
    35     35      7      8     26
    36     36      7      6     25
    37     37     16     15     31
    38     38      8      7      9
    39     39     11     16     15
    40     40      6      7      8
    41     41      5      4     23
    42     42     10     19     18
    43     43     11     10     19
    44     44     19     18     32
    45     45     17     18     19
    46     46     12     11     16
    47     47     14     15     16
    48     48     15     14     30
    49     49     13     12     28
    50     50     15     16     17
    51     51     20      1     22
    52     52     20      1     21
    53     53      4      3      8
    54     54     10      9     27

Dihedrals

     1      1      4      3      2      1 
     2      2      5      4      3      2 
     3      3      6      5      4      3 
     4      4      7      6      5      4 
     5      5     10      9      7      6 
     6      6     11     10      9      7 
     7      7     12     11     10      9 
     8      8     13     12     11     10 
     9      9     14     13     12     11 
    10     10     15     14     13     12 
    11     11     18     17     16     11 
    12     12     20      1      2      3 
    13     13     25      6      5      4 
    14     14     27      9      7      8 
    15     15     14     15     16     11 
    16     16     28     12     11     16 
    17     17     17     16     11     10 
    18     18     24      5      6      7 
    19     19     23      4      3      2 
    20     20     19     10     11     16 
    21     21     30     14     13     29 
    22     22     26      8      7      6 
    23     23     28     12     11     10 
    24     24     27      9     10     11 
    25     25     19     10      9      7 
    26     26     30     14     13     12 
    27     27     23      4      3      8 
    28     28     16     11     12     13 
    29     29     19     10     11     12 
    30     30     31     15     14     30 
    31     31     26      8      3      2 
    32     32     23      4      5      6 
    33     33     26      8      7      9 
    34     34     17     16     15     14 
    35     35     16     11     10      9 
    36     36     29     13     14     15 
    37     37     26      8      3      4 
    38     38     25      6      5     24 
    39     39      9      7      6      5 
    40     40      7      8      3      4 
    41     41     25      6      7      9 
    42     42      8      7      6      5 
    43     43      6      7      8      3 
    44     44     27      9      7      6 
    45     45     16     15     14     13 
    46     46      7      8      3      2 
    47     47     15     16     11     12 
    48     48     31     15     16     11 
    49     49     28     12     13     14 
    50     50     31     15     16     17 
    51     51     27      9     10     19 
    52     52     32     18     17     16 
    53     53      8      3      4      5 
    54     54     18     19     10     11 
    55     55     24      5      4      3 
    56     56     18     19     10      9 
    57     57      9      7      8      3 
    58     58     25      6      7      8 
    59     59     17     18     19     10 
    60     60     18     17     16     15 
    61     61     32     18     19     10 
    62     62     19     18     17     16 
    63     63     29     13     12     28 
    64     64     31     15     14     13 
    65     65      8      3      2      1 
    66     66     21      1      2      3 
    67     67     29     13     12     11 
    68     68     15     16     11     10 
    69     69     24      5      4     23 
    70     70     30     14     15     16 
    71     71     22      1      2      3 
    72     72     10      9      7      8 
    73     73     17     16     11     12 

Impropers

     1      1      3      2      4      8 
     2      2      7      9      6      8 
     3      3     11     10     12     16 
     4      4     16     17     11     15 
     5      5     10      9     19     11 
     6      6      1      2     20     21 
     7      7      1      2     20     22 
     8      8      4      3      5     23 
     9      9      5      4      6     24 
    10     10      6     25      5      7 
    11     11      8     26      3      7 
    12     12      9     10     27      7 
    13     13     12     11     28     13 
    14     14     13     12     29     14 
    15     15     14     13     30     15 
    16     16     15     16     31     14 
    17     17     18     17     19     32 
