LAMMPS data file Created by LigParGen - (Written by Leela S. Dodda)

      39 atoms
      41 bonds
      67 angles
      84 dihedrals
      21 impropers
 
      39 atom types
      41 bond types
      67 angle types
      84 dihedral types
      21 improper types
 
   -6.095050    43.904950 xlo xhi
   -1.788050    48.211950 ylo yhi
  -10.017620    39.982380 zlo zhi

Masses

       1     12.011  
       2     12.011  
       3     12.011  
       4     12.011  
       5     12.011  
       6     12.011  
       7     12.011  
       8     14.007  
       9     12.011  
      10     12.011  
      11     12.011  
      12     12.011  
      13     12.011  
      14     12.011  
      15     12.011  
      16     14.007  
      17     12.011  
      18     14.007  
      19     15.999  
      20     12.011  
      21     15.999  
      22     12.011  
      23      1.008  
      24      1.008  
      25      1.008  
      26      1.008  
      27      1.008  
      28      1.008  
      29      1.008  
      30      1.008  
      31      1.008  
      32      1.008  
      33      1.008  
      34      1.008  
      35      1.008  
      36      1.008  
      37      1.008  
      38      1.008  
      39      1.008  

Pair Coeffs 

       1      0.066  3.5000000 
       2      0.070  3.5500000 
       3      0.070  3.5500000 
       4      0.070  3.5500000 
       5      0.070  3.5500000 
       6      0.070  3.5500000 
       7      0.070  3.5500000 
       8      0.170  3.2500000 
       9      0.070  3.5500000 
      10      0.080  3.5000000 
      11      0.070  3.5500000 
      12      0.070  3.5500000 
      13      0.070  3.5500000 
      14      0.070  3.5500000 
      15      0.080  3.5000000 
      16      0.170  3.2500000 
      17      0.070  3.5500000 
      18      0.170  3.2500000 
      19      0.140  2.9000000 
      20      0.066  3.5000000 
      21      0.140  2.9000000 
      22      0.066  3.5000000 
      23      0.030  2.5000000 
      24      0.030  2.5000000 
      25      0.030  2.5000000 
      26      0.030  2.4200000 
      27      0.030  2.4200000 
      28      0.030  2.4200000 
      29      0.030  2.4200000 
      30      0.000  0.0000000 
      31      0.030  2.4200000 
      32      0.030  2.4200000 
      33      0.030  2.4200000 
      34      0.030  2.5000000 
      35      0.030  2.5000000 
      36      0.030  2.5000000 
      37      0.030  2.5000000 
      38      0.030  2.5000000 
      39      0.030  2.5000000 

Bond Coeffs 

       1   317.0000     1.5100 
       2   469.0000     1.4000 
       3   469.0000     1.4000 
       4   469.0000     1.4000 
       5   469.0000     1.4000 
       6   469.0000     1.4000 
       7   427.0000     1.3810 
       8   427.0000     1.3810 
       9   469.0000     1.4040 
      10   469.0000     1.4040 
      11   469.0000     1.4000 
      12   469.0000     1.4000 
      13   469.0000     1.4000 
      14   520.0000     1.3700 
      15   461.0000     1.3540 
      16   502.0000     1.3240 
      17   483.0000     1.3390 
      18   450.0000     1.3640 
      19   320.0000     1.4100 
      20   450.0000     1.3640 
      21   320.0000     1.4100 
      22   340.0000     1.0900 
      23   340.0000     1.0900 
      24   340.0000     1.0900 
      25   367.0000     1.0800 
      26   367.0000     1.0800 
      27   367.0000     1.0800 
      28   367.0000     1.0800 
      29   434.0000     1.0100 
      30   367.0000     1.0800 
      31   367.0000     1.0800 
      32   367.0000     1.0800 
      33   340.0000     1.0900 
      34   340.0000     1.0900 
      35   340.0000     1.0900 
      36   340.0000     1.0900 
      37   340.0000     1.0900 
      38   340.0000     1.0900 
      39   469.0000     1.4000 
      40   469.0000     1.4040 
      41   502.0000     1.3240 

Angle Coeffs 

       1     70.000    120.000
       2     63.000    120.000
       3     63.000    120.000
       4     63.000    120.000
       5     70.000    120.000
       6     70.000    120.000
       7     70.000    118.000
       8     70.000    120.000
       9     85.000    134.900
      10     63.000    120.000
      11     63.000    120.000
      12     63.000    120.000
      13     85.000    117.300
      14     70.000    127.700
      15     70.000    111.000
      16     64.510    118.990
      17     70.000    120.000
      18     75.000    111.000
      19     70.000    120.000
      20     75.000    111.000
      21     35.000    109.500
      22     35.000    109.500
      23     35.000    109.500
      24     35.000    120.000
      25     35.000    120.000
      26     35.000    120.000
      27     35.000    120.000
      28     35.000    119.800
      29     35.000    120.000
      30     35.000    120.000
      31     35.000    115.450
      32     35.000    109.500
      33     35.000    109.500
      34     35.000    109.500
      35     35.000    109.500
      36     35.000    109.500
      37     35.000    109.500
      38     35.000    119.800
      39     33.000    107.800
      40     70.000    120.000
      41     63.000    120.000
      42     70.000    118.600
      43     63.000    120.000
      44     33.000    107.800
      45     35.000    120.000
      46     33.000    107.800
      47     35.000    115.450
      48     63.000    120.000
      49     33.000    107.800
      50     33.000    107.800
      51     70.000    120.000
      52     85.000    117.300
      53     70.000    129.100
      54     85.000    117.300
      55     70.000    120.000
      56     33.000    107.800
      57     35.000    120.000
      58     33.000    107.800
      59     70.000    132.400
      60     63.000    120.000
      61     33.000    107.800
      62     35.000    120.000
      63     35.000    120.000
      64     35.000    120.000
      65     35.000    120.000
      66     70.000    117.300
      67     33.000    107.800

Dihedral Coeffs  

       1      0.000      7.250      0.000      0.000 
       2      0.000      7.250      0.000      0.000 
       3      0.000      7.250      0.000      0.000 
       4      0.000      2.100      0.000      0.000 
       5      0.000      2.100      0.000      0.000 
       6      0.000      7.000      0.000      0.000 
       7      0.000      7.000      0.000      0.000 
       8      0.000      7.250      0.000      0.000 
       9      0.000      7.250      0.000      0.000 
      10      0.000      7.250      0.000      0.000 
      11      0.000      3.000      0.000      0.000 
      12      0.000      3.000      0.000      0.000 
      13      0.000      0.000      0.000      0.000 
      14      0.000      0.000      0.760      0.000 
      15      0.000      0.000      0.760      0.000 
      16      0.000      0.000      0.760      0.000 
      17      0.000      0.000      0.760      0.000 
      18      0.000      7.250      0.000      0.000 
      19      0.000      7.250      0.000      0.000 
      20      0.000      7.000      0.000      0.000 
      21      0.000      7.250      0.000      0.000 
      22      0.000      7.000      0.000      0.000 
      23      0.000      7.000      0.000      0.000 
      24      0.000      2.100      0.000      0.000 
      25      0.000      3.000      0.000      0.000 
      26      0.000      2.100      0.000      0.000 
      27      0.000      7.250      0.000      0.000 
      28      0.000      7.250      0.000      0.000 
      29      0.000      7.250      0.000      0.000 
      30      0.000      7.250      0.000      0.000 
      31      0.000      7.250      0.000      0.000 
      32      0.000      7.250      0.000      0.000 
      33      0.000      7.250      0.000      0.000 
      34      0.000      7.250      0.000      0.000 
      35      0.000      0.000      0.000      0.000 
      36      0.000      7.250      0.000      0.000 
      37      0.000      2.100      0.000      0.000 
      38      0.000      7.000      0.000      0.000 
      39      0.000      7.250      0.000      0.000 
      40      0.000      7.250      0.000      0.000 
      41      0.000      7.250      0.000      0.000 
      42      0.000      7.250      0.000      0.000 
      43      0.000      0.000      0.760      0.000 
      44      0.000      7.250      0.000      0.000 
      45      0.000      0.000      0.000      0.000 
      46      0.000      7.250      0.000      0.000 
      47      0.000      7.250      0.000      0.000 
      48      0.000      7.000      0.000      0.000 
      49      0.000      7.000      0.000      0.000 
      50      0.000      7.250      0.000      0.000 
      51      0.000      7.250      0.000      0.000 
      52      0.000      7.250      0.000      0.000 
      53      0.000      7.250      0.000      0.000 
      54      0.000      7.250      0.000      0.000 
      55      0.000      7.250      0.000      0.000 
      56      0.000      7.250      0.000      0.000 
      57      0.000      2.030      0.000      0.000 
      58      0.000      7.250      0.000      0.000 
      59      0.000      6.089      0.000      0.000 
      60      0.000      3.000      0.000      0.000 
      61      0.000      7.250      0.000      0.000 
      62      0.000      2.100      0.000      0.000 
      63      0.000      7.250      0.000      0.000 
      64      0.000      7.250      0.000      0.000 
      65      0.000      7.250      0.000      0.000 
      66      0.000      7.250      0.000      0.000 
      67      0.000      7.250      0.000      0.000 
      68      0.000      7.250      0.000      0.000 
      69      0.000      0.000      0.000      0.000 
      70      0.000      0.000      0.000      0.000 
      71      0.000      0.000      0.760      0.000 
      72      0.000      7.250      0.000      0.000 
      73      0.000      7.250      0.000      0.000 
      74      0.000      7.250      0.000      0.000 
      75      0.000      7.250      0.000      0.000 
      76      0.000      7.250      0.000      0.000 
      77      0.000      7.250      0.000      0.000 
      78      0.000      7.250      0.000      0.000 
      79      0.000      0.000      0.000      0.000 
      80      0.000      7.250      0.000      0.000 
      81      0.000      7.250      0.000      0.000 
      82      0.000      7.250      0.000      0.000 
      83      0.000      7.250      0.000      0.000 
      84      0.000      7.250      0.000      0.000 

Improper Coeffs 

       1      2.500      -1       2 
       2      2.500      -1       2 
       3      2.500      -1       2 
       4      2.500      -1       2 
       5      2.500      -1       2 
       6      2.500      -1       2 
       7      2.500      -1       2 
       8      0.000      -1       2 
       9      0.000      -1       2 
      10      2.500      -1       2 
      11      2.500      -1       2 
      12      2.500      -1       2 
      13      2.500      -1       2 
      14      2.500      -1       2 
      15      2.500      -1       2 
      16      2.500      -1       2 
      17      2.500      -1       2 
      18      0.000      -1       2 
      19      0.000      -1       2 
      20      0.000      -1       2 
      21      0.000      -1       2 

Atoms 

     1      1      1 -0.19830000    1.000  1.00000  0.00000
     2      1      2 -0.05060000   -0.499  1.00000  0.00000
     3      1      3 -0.17410000   -1.232  1.00000  1.18743
     4      1      4 -0.11480000   -2.627  0.99847  1.14680
     5      1      5 -0.20470000   -3.297  0.99694 -0.08082
     6      1      6 0.19900000   -2.581  0.99691 -1.28326
     7      1      7 -0.16170000   -1.183  0.99845 -1.22305
     8      1      8 -0.72200000   -3.262  1.10593 -2.51620
     9      1      9 0.45180000   -2.803  0.61631 -3.76941
    10      1     10 -0.15730000   -3.272  1.21146 -4.95422
    11      1     11 -0.13930000   -4.191  2.29068 -5.01886
    12      1     12 0.05710000   -4.549  2.87514 -6.24111
    13      1     13 0.16620000   -3.977  2.37071 -7.41569
    14      1     14 -0.17570000   -3.070  1.30203 -7.32945
    15      1     15 0.17910000   -2.724  0.70368 -6.13524
    16      1     16 -0.45800000   -1.880 -0.33286 -6.15728
    17      1     17 0.25740000   -1.572 -0.87982 -4.97764
    18      1     18 -0.54370000   -1.928 -0.40616 -3.77976
    19      1     19 -0.29470000   -4.174  2.77950 -8.70786
    20      1     20 -0.04540000   -5.004  3.90364 -8.95411
    21      1     21 -0.31370000   -5.472  3.87960 -6.31991
    22      1     22 -0.05380000   -5.528  4.77729 -5.21558
    23      1     23 0.09560000    1.403  0.95453  1.01630
    24      1     24 0.09560000    1.379  1.90909 -0.47772
    25      1     25 0.09560000    1.372  0.12592 -0.54588
    26      1     26 0.14890000   -0.723  1.00237  2.14817
    27      1     27 0.15000000   -3.193  0.99729  2.07503
    28      1     28 0.14250000   -4.383  0.99456 -0.08126
    29      1     29 0.16500000   -0.604  0.99726 -2.14361
    30      1     30 0.42930000   -4.259  0.94162 -2.43119
    31      1     31 0.16930000   -4.618  2.65908 -4.09193
    32      1     32 0.19500000   -2.615  0.92584 -8.24390
    33      1     33 0.22090000   -0.980 -1.78805 -4.99652
    34      1     34 0.09930000   -4.919  4.14827 -10.01762
    35      1     35 0.09930000   -4.671  4.78548 -8.39757
    36      1     36 0.09930000   -6.052  3.65927 -8.75753
    37      1     37 0.09720000   -6.095  5.65757 -5.53355
    38      1     38 0.09720000   -4.529  5.11173 -4.91760
    39      1     39 0.09720000   -6.064  4.32591 -4.37456

Bonds 

     1      1      2      1
     2      2      3      2
     3      3      4      3
     4      4      5      4
     5      5      6      5
     6      6      7      2
     7      7      8      6
     8      8      9      8
     9      9     10      9
    10     10     11     10
    11     11     12     11
    12     12     13     12
    13     13     14     13
    14     14     15     10
    15     15     16     15
    16     16     17     16
    17     17     18      9
    18     18     19     13
    19     19     20     19
    20     20     21     12
    21     21     22     21
    22     22     23      1
    23     23     24      1
    24     24     25      1
    25     25     26      3
    26     26     27      4
    27     27     28      5
    28     28     29      7
    29     29     30      8
    30     30     31     11
    31     31     32     14
    32     32     33     17
    33     33     34     20
    34     34     35     20
    35     35     36     20
    36     36     37     22
    37     37     38     22
    38     38     39     22
    39     39      7      6
    40     40     15     14
    41     41     18     17

Angles 

     1      1      1      2      3
     2      2      2      3      4
     3      3      3      4      5
     4      4      4      5      6
     5      5      1      2      7
     6      6      5      6      8
     7      7      6      8      9
     8      8      8      9     10
     9      9      9     10     11
    10     10     10     11     12
    11     11     11     12     13
    12     12     12     13     14
    13     13      9     10     15
    14     14     10     15     16
    15     15     15     16     17
    16     16      8      9     18
    17     17     12     13     19
    18     18     13     19     20
    19     19     11     12     21
    20     20     12     21     22
    21     21      2      1     23
    22     22      2      1     24
    23     23      2      1     25
    24     24      2      3     26
    25     25      3      4     27
    26     26      4      5     28
    27     27      2      7     29
    28     28      6      8     30
    29     29     10     11     31
    30     30     13     14     32
    31     31     16     17     33
    32     32     19     20     34
    33     33     19     20     35
    34     34     19     20     36
    35     35     21     22     37
    36     36     21     22     38
    37     37     21     22     39
    38     38      9      8     30
    39     39     37     22     39
    40     40     14     13     19
    41     41     13     14     15
    42     42      9     18     17
    43     43      2      7      6
    44     44     23      1     25
    45     45     12     11     31
    46     46     34     20     35
    47     47     18     17     33
    48     48      5      6      7
    49     49     23      1     24
    50     50     35     20     36
    51     51     13     12     21
    52     52     11     10     15
    53     53     16     17     18
    54     54     10     15     14
    55     55      7      6      8
    56     56     34     20     36
    57     57     15     14     32
    58     58     37     22     38
    59     59     14     15     16
    60     60      3      2      7
    61     61     38     22     39
    62     62      5      4     27
    63     63      6      5     28
    64     64      4      3     26
    65     65      6      7     29
    66     66     10      9     18
    67     67     24      1     25

Dihedrals

     1      1      4      3      2      1 
     2      2      5      4      3      2 
     3      3      6      5      4      3 
     4      4      9      8      6      5 
     5      5     10      9      8      6 
     6      6     11     10      9      8 
     7      7     12     11     10      9 
     8      8     13     12     11     10 
     9      9     14     13     12     11 
    10     10     17     16     15     10 
    11     11     20     19     13     12 
    12     12     22     21     12     11 
    13     13     23      1      2      3 
    14     14     34     20     19     13 
    15     15     37     22     21     12 
    16     16     39     22     21     12 
    17     17     35     20     19     13 
    18     18     28      5      6      7 
    19     19     21     12     11     10 
    20     20     18      9     10     11 
    21     21     29      7      2      3 
    22     22     15     10      9      8 
    23     23     13     14     15     10 
    24     24      9      8      6      7 
    25     25     20     19     13     14 
    26     26     30      8      9     10 
    27     27      6      7      2      3 
    28     28      6      7      2      1 
    29     29     33     17     18      9 
    30     30     19     13     12     11 
    31     31     16     15     10     11 
    32     32     31     11     10     15 
    33     33     32     14     15     10 
    34     34     17     18      9      8 
    35     35     24      1      2      7 
    36     36      7      6      5      4 
    37     37     30      8      6      7 
    38     38     18      9     10     15 
    39     39      8      6      7      2 
    40     40     17     16     15     14 
    41     41     21     12     13     19 
    42     42     31     11     12     21 
    43     43     36     20     19     13 
    44     44     26      3      2      7 
    45     45     25      1      2      3 
    46     46      8      6      5      4 
    47     47     29      7      6      5 
    48     48     16     15     14     13 
    49     49     15     10     11     12 
    50     50     31     11     10      9 
    51     51     21     12     13     14 
    52     52     19     13     14     15 
    53     53     29      7      6      8 
    54     54     27      4      3     26 
    55     55     27      4      3      2 
    56     56     29      7      2      1 
    57     57     30      8      9     18 
    58     58     28      5      6      8 
    59     59     18      9      8      6 
    60     60     22     21     12     13 
    61     61     26      3      2      1 
    62     62     30      8      6      5 
    63     63     26      3      4      5 
    64     64     15     14     13     12 
    65     65      5      6      7      2 
    66     66     18     17     16     15 
    67     67     14     15     10      9 
    68     68     32     14     15     16 
    69     69     23      1      2      7 
    70     70     25      1      2      7 
    71     71     38     22     21     12 
    72     72     16     15     10      9 
    73     73     32     14     13     19 
    74     74     27      4      5      6 
    75     75      7      2      3      4 
    76     76     33     17     16     15 
    77     77     14     15     10     11 
    78     78     28      5      4     27 
    79     79     24      1      2      3 
    80     80     16     17     18      9 
    81     81     17     18      9     10 
    82     82     32     14     13     12 
    83     83     31     11     12     13 
    84     84     28      5      4      3 

Impropers

     1      1      2      1      3      7 
     2      2      6      5      7      8 
     3      3     10      9     11     15 
     4      4     15     10     14     16 
     5      5      9     18     10      8 
     6      6     13     19     12     14 
     7      7     12     13     11     21 
     8      8      1      2     23     24 
     9      9      1     25     23      2 
    10     10      3     26      4      2 
    11     11      4     27      5      3 
    12     12      5      4     28      6 
    13     13      7      2     29      6 
    14     14      8      9      6     30 
    15     15     11     10     12     31 
    16     16     14     13     15     32 
    17     17     17     33     18     16 
    18     18     20     34     35     19 
    19     19     20     34     19     36 
    20     20     22     37     21     38 
    21     21     22     37     21     39 
