LAMMPS data file Created by LigParGen - (Written by Leela S. Dodda)

      37 atoms
      39 bonds
      64 angles
      92 dihedrals
      21 impropers
 
      37 atom types
      39 bond types
      64 angle types
      92 dihedral types
      21 improper types
 
   -7.170860    42.829140 xlo xhi
   -1.921940    48.078060 ylo yhi
   -7.243190    42.756810 zlo zhi

Masses

       1     12.011  
       2     12.011  
       3     12.011  
       4     12.011  
       5     12.011  
       6     12.011  
       7     12.011  
       8     12.011  
       9     12.011  
      10     12.011  
      11     15.999  
      12     14.007  
      13      1.008  
      14     12.011  
      15     12.011  
      16     15.999  
      17     15.999  
      18     12.011  
      19     12.011  
      20     12.011  
      21     12.011  
      22     12.011  
      23     12.011  
      24      1.008  
      25      1.008  
      26      1.008  
      27      1.008  
      28      1.008  
      29      1.008  
      30      1.008  
      31      1.008  
      32      1.008  
      33      1.008  
      34      1.008  
      35      1.008  
      36      1.008  
      37      1.008  

Pair Coeffs 

       1      0.066  3.5000000 
       2      0.070  3.5500000 
       3      0.070  3.5500000 
       4      0.070  3.5500000 
       5      0.080  3.5000000 
       6      0.080  3.5000000 
       7      0.070  3.5500000 
       8      0.070  3.5500000 
       9      0.076  3.5500000 
      10      0.070  3.5500000 
      11      0.210  2.9600000 
      12      0.170  3.2500000 
      13      0.000  0.0000000 
      14      0.066  3.5000000 
      15      0.070  3.5500000 
      16      0.210  2.9600000 
      17      0.170  3.1200000 
      18      0.070  3.5500000 
      19      0.070  3.5500000 
      20      0.070  3.5500000 
      21      0.070  3.5500000 
      22      0.070  3.5500000 
      23      0.070  3.5500000 
      24      0.030  2.5000000 
      25      0.030  2.5000000 
      26      0.030  2.5000000 
      27      0.030  2.4200000 
      28      0.030  2.4200000 
      29      0.030  2.4200000 
      30      0.030  2.5000000 
      31      0.030  2.5000000 
      32      0.000  0.0000000 
      33      0.030  2.4200000 
      34      0.030  2.4200000 
      35      0.030  2.4200000 
      36      0.030  2.4200000 
      37      0.030  2.4200000 

Bond Coeffs 

       1   317.0000     1.5100 
       2   469.0000     1.4000 
       3   469.0000     1.4000 
       4   469.0000     1.4040 
       5   520.0000     1.3700 
       6   469.0000     1.4000 
       7   469.0000     1.4000 
       8   385.0000     1.4600 
       9   410.0000     1.4440 
      10   570.0000     1.2290 
      11   436.0000     1.3740 
      12   434.0000     1.0100 
      13   317.0000     1.5100 
      14   317.0000     1.5220 
      15   570.0000     1.2290 
      16   450.0000     1.3640 
      17   385.0000     1.4600 
      18   469.0000     1.4000 
      19   469.0000     1.4000 
      20   469.0000     1.4000 
      21   469.0000     1.4000 
      22   469.0000     1.4000 
      23   340.0000     1.0900 
      24   340.0000     1.0900 
      25   340.0000     1.0900 
      26   367.0000     1.0800 
      27   367.0000     1.0800 
      28   367.0000     1.0800 
      29   340.0000     1.0900 
      30   340.0000     1.0900 
      31   553.0000     0.9450 
      32   367.0000     1.0800 
      33   367.0000     1.0800 
      34   367.0000     1.0800 
      35   367.0000     1.0800 
      36   367.0000     1.0800 
      37   469.0000     1.4040 
      38   418.0000     1.3880 
      39   469.0000     1.4000 

Angle Coeffs 

       1     70.000    120.000
       2     63.000    120.000
       3     63.000    120.000
       4     85.000    117.300
       5     70.000    120.000
       6     85.000    117.300
       7     63.000    120.000
       8     85.000    120.000
       9     80.000    125.300
      10     70.000    108.700
      11     30.000    125.800
      12     85.000    119.700
      13     63.000    112.000
      14     80.000    120.400
      15     70.000    108.000
      16     63.000    120.000
      17     63.000    120.000
      18     63.000    120.000
      19     63.000    120.000
      20     63.000    120.000
      21     63.000    120.000
      22     35.000    109.500
      23     35.000    109.500
      24     35.000    109.500
      25     35.000    120.000
      26     35.000    120.000
      27     35.000    120.000
      28     35.000    109.500
      29     35.000    109.500
      30     35.000    113.000
      31     35.000    120.000
      32     35.000    120.000
      33     35.000    120.000
      34     35.000    120.000
      35     35.000    120.000
      36     35.000    120.000
      37     70.000    125.200
      38     35.000    120.000
      39     35.000    120.000
      40     33.000    107.800
      41     35.000    120.000
      42     80.000    120.600
      43     35.000    120.000
      44     63.000    120.000
      45     85.000    117.300
      46     35.000    116.800
      47     63.000    120.000
      48     35.000    120.000
      49     70.000    119.700
      50     35.000    120.000
      51     35.000    120.000
      52     33.000    107.800
      53     70.000    114.100
      54     85.000    134.900
      55     70.000    106.200
      56     80.000    121.000
      57     63.000    120.000
      58     35.000    109.500
      59     63.000    120.000
      60     33.000    107.800
      61     35.000    109.500
      62     63.000    120.000
      63     63.000    120.000
      64     33.000    107.800

Dihedral Coeffs  

       1      0.000      7.250      0.000      0.000 
       2      0.000      7.250      0.000      0.000 
       3      0.000      7.000      0.000      0.000 
       4      0.000      7.250      0.000      0.000 
       5      0.000      7.250      0.000      0.000 
       6      2.500      6.000      0.000      0.000 
       7      2.817     -0.169      0.543      0.000 
       8      0.000      0.000      0.000      0.000 
       9      0.000      2.170      0.000      0.000 
      10      0.000      7.250      0.000      0.000 
      11      0.000      7.250      0.000      0.000 
      12      0.000      7.250      0.000      0.000 
      13      0.000      0.000      0.000      0.000 
      14      1.500      5.500      0.000      0.000 
      15      0.000      7.250      0.000      0.000 
      16      0.000      7.250      0.000      0.000 
      17      0.000      7.250      0.000      0.000 
      18      0.000      7.250      0.000      0.000 
      19      0.000      5.000      0.000      0.000 
      20      0.000      7.250      0.000      0.000 
      21      0.000      7.250      0.000      0.000 
      22      0.000      7.000      0.000      0.000 
      23      0.000      7.250      0.000      0.000 
      24      0.000      7.250      0.000      0.000 
      25      0.000      7.000      0.000      0.000 
      26      0.000      2.170      0.000      0.000 
      27      0.000      4.900      0.000      0.000 
      28      0.000      0.000      0.000      0.000 
      29      0.000      7.250      0.000      0.000 
      30      0.000      0.000     -0.372      0.000 
      31     -0.550      0.000      1.000      0.000 
      32      0.000      7.250      0.000      0.000 
      33      0.000      7.250      0.000      0.000 
      34      0.000      7.250      0.000      0.000 
      35      0.000      5.500      0.000      0.000 
      36      0.000      7.250      0.000      0.000 
      37      0.000      4.900      0.000      0.000 
      38      0.000      0.000      0.000      0.000 
      39      0.000      0.000      0.000      0.000 
      40      0.000      7.250      0.000      0.000 
      41      0.000      7.250      0.000      0.000 
      42      0.000      7.250      0.000      0.000 
      43      0.000      7.250      0.000      0.000 
      44      0.000      7.250      0.000      0.000 
      45      0.000      7.250      0.000      0.000 
      46      0.000      2.170      0.000      0.000 
      47      0.000      0.000      0.000      0.000 
      48      0.000      7.250      0.000      0.000 
      49      0.000      7.250      0.000      0.000 
      50      0.000      7.250      0.000      0.000 
      51      0.000      0.000     -0.372      0.000 
      52      0.900      0.230     -0.505      0.000 
      53      0.000      7.250      0.000      0.000 
      54      0.000      0.000      0.000      0.000 
      55      0.000      0.000      0.000      0.000 
      56      0.000      7.250      0.000      0.000 
      57      0.000      7.250      0.000      0.000 
      58      0.000      0.000      0.000      0.000 
      59      0.000      7.250      0.000      0.000 
      60      0.000      7.250      0.000      0.000 
      61      0.000      5.000      0.000      0.000 
      62      0.000      7.000      0.000      0.000 
      63      0.000      7.250      0.000      0.000 
      64      0.000      7.250      0.000      0.000 
      65      0.000      0.000     -0.372      0.000 
      66      0.000      7.250      0.000      0.000 
      67      0.000      7.250      0.000      0.000 
      68      0.000      7.250      0.000      0.000 
      69      0.000      7.250      0.000      0.000 
      70      0.000      7.250      0.000      0.000 
      71      0.000      7.250      0.000      0.000 
      72      0.000      7.250      0.000      0.000 
      73      0.000      7.250      0.000      0.000 
      74      0.000      7.250      0.000      0.000 
      75      0.000      7.250      0.000      0.000 
      76      1.000      0.546      0.450      0.000 
      77      0.000      2.170      0.000      0.000 
      78      0.000      0.000      0.000      0.000 
      79      0.000      7.250      0.000      0.000 
      80      0.000      0.000      0.000      0.000 
      81      2.000      0.000      0.000      0.000 
      82      0.000      7.250      0.000      0.000 
      83      0.000      7.250      0.000      0.000 
      84      0.000      7.250      0.000      0.000 
      85      0.000      7.250      0.000      0.000 
      86      2.000      0.000      0.000      0.000 
      87      0.000      7.250      0.000      0.000 
      88      0.000      7.250      0.000      0.000 
      89      0.000      0.000     -0.372      0.000 
      90      0.000      4.900      0.000      0.000 
      91      0.000      0.000      0.000      0.000 
      92      0.000      2.170      0.000      0.000 

Improper Coeffs 

       1      2.500      -1       2 
       2      2.500      -1       2 
       3      2.500      -1       2 
       4      2.500      -1       2 
       5      2.500      -1       2 
       6     10.500      -1       2 
       7      2.500      -1       2 
       8      2.500      -1       2 
       9      0.000      -1       2 
      10      0.000      -1       2 
      11      2.500      -1       2 
      12      2.500      -1       2 
      13      2.500      -1       2 
      14      0.000      -1       2 
      15      0.000      -1       2 
      16      2.500      -1       2 
      17      2.500      -1       2 
      18      2.500      -1       2 
      19      2.500      -1       2 
      20      2.500      -1       2 
      21     10.500      -1       2 

Atoms 

     1      1      1 -0.19620000    1.000  1.00000  0.00000
     2      1      2 -0.11230000   -0.501  1.00000  0.00000
     3      1      3 -0.08970000   -1.216  1.00000  1.20155
     4      1      4 -0.19700000   -2.611  0.99848  1.18860
     5      1      5 0.24760000   -3.293  0.99695 -0.03038
     6      1      6 -0.09800000   -2.604  0.99691 -1.24824
     7      1      7 -0.07880000   -1.202  0.99846 -1.21836
     8      1      8 0.08160000   -3.370  0.91155 -2.52549
     9      1      9 -0.17950000   -4.725  0.94212 -2.47389
    10      1     10 0.59640000   -5.420  1.15894 -1.16688
    11      1     11 -0.49560000   -6.629  1.39294 -1.15137
    12      1     12 -0.85510000   -4.689  0.99697 -0.03211
    13      1     13 0.49000000   -5.195  0.96141  0.84240
    14      1     14 -0.20220000   -5.683  0.65535 -3.61082
    15      1     15 0.47240000   -6.256  1.89699 -4.26337
    16      1     16 -0.41890000   -6.053  2.20130 -5.43141
    17      1     17 -0.56760000   -7.070  2.63078 -3.45806
    18      1     18 -0.07990000   -2.718  0.65743 -3.83238
    19      1     19 -0.10800000   -2.460  1.70548 -4.72427
    20      1     20 -0.14090000   -1.843  1.44303 -5.94750
    21      1     21 -0.13360000   -1.482  0.13885 -6.28780
    22      1     22 -0.15080000   -1.737 -0.90583 -5.40227
    23      1     23 -0.12970000   -2.353 -0.65086 -4.17853
    24      1     24 0.09790000    1.400  0.92110  1.01669
    25      1     25 0.09790000    1.381  1.92409 -0.44499
    26      1     26 0.09790000    1.374  0.14125 -0.56770
    27      1     27 0.16040000   -0.690  1.00000  2.15428
    28      1     28 0.16150000   -3.148  0.99730  2.13297
    29      1     29 0.17060000   -0.631  0.99728 -2.14562
    30      1     30 0.14310000   -6.523  0.03667 -3.26817
    31      1     31 0.14310000   -5.213  0.05405 -4.39399
    32      1     32 0.48830000   -7.171  2.24578 -2.55733
    33      1     33 0.16470000   -2.736  2.72783 -4.47586
    34      1     34 0.15910000   -1.642  2.25836 -6.64070
    35      1     35 0.15360000   -1.002 -0.06105 -7.24319
    36      1     36 0.15340000   -1.455 -1.92194 -5.66575
    37      1     37 0.15430000   -2.546 -1.47343 -3.49428

Bonds 

     1      1      2      1
     2      2      3      2
     3      3      4      3
     4      4      5      4
     5      5      6      5
     6      6      7      2
     7      7      8      6
     8      8      9      8
     9      9     10      9
    10     10     11     10
    11     11     12      5
    12     12     13     12
    13     13     14      9
    14     14     15     14
    15     15     16     15
    16     16     17     15
    17     17     18      8
    18     18     19     18
    19     19     20     19
    20     20     21     20
    21     21     22     21
    22     22     23     18
    23     23     24      1
    24     24     25      1
    25     25     26      1
    26     26     27      3
    27     27     28      4
    28     28     29      7
    29     29     30     14
    30     30     31     14
    31     31     32     17
    32     32     33     19
    33     33     34     20
    34     34     35     21
    35     35     36     22
    36     36     37     23
    37     37      7      6
    38     38     12     10
    39     39     23     22

Angles 

     1      1      1      2      3
     2      2      2      3      4
     3      3      3      4      5
     4      4      4      5      6
     5      5      1      2      7
     6      6      5      6      8
     7      7      6      8      9
     8      8      8      9     10
     9      9      9     10     11
    10     10      4      5     12
    11     11      5     12     13
    12     12      8      9     14
    13     13      9     14     15
    14     14     14     15     16
    15     15     14     15     17
    16     16      6      8     18
    17     17      8     18     19
    18     18     18     19     20
    19     19     19     20     21
    20     20     20     21     22
    21     21      8     18     23
    22     22      2      1     24
    23     23      2      1     25
    24     24      2      1     26
    25     25      2      3     27
    26     26      3      4     28
    27     27      2      7     29
    28     28      9     14     30
    29     29      9     14     31
    30     30     15     17     32
    31     31     18     19     33
    32     32     19     20     34
    33     33     20     21     35
    34     34     21     22     36
    35     35     18     23     37
    36     36     21     20     34
    37     37      5     12     10
    38     38     22     21     35
    39     39     23     22     36
    40     40     30     14     31
    41     41      6      7     29
    42     42     11     10     12
    43     43      5      4     28
    44     44      2      7      6
    45     45      5      6      7
    46     46     10     12     13
    47     47      9      8     18
    48     48     22     23     37
    49     49     10      9     14
    50     50     20     19     33
    51     51      4      3     27
    52     52     24      1     26
    53     53      9     10     12
    54     54      7      6      8
    55     55      6      5     12
    56     56     16     15     17
    57     57     21     22     23
    58     58     15     14     30
    59     59     18     23     22
    60     60     25      1     26
    61     61     15     14     31
    62     62      3      2      7
    63     63     19     18     23
    64     64     24      1     25

Dihedrals

     1      1      4      3      2      1 
     2      2      5      4      3      2 
     3      3      6      5      4      3 
     4      4      9      8      6      5 
     5      5     10      9      8      6 
     6      6     11     10      9      8 
     7      7     15     14      9      8 
     8      8     16     15     14      9 
     9      9     19     18      8      6 
    10     10     20     19     18      8 
    11     11     21     20     19     18 
    12     12     22     21     20     19 
    13     13     24      1      2      3 
    14     14     32     17     15     14 
    15     15     27      3      4      5 
    16     16     34     20     19     33 
    17     17     28      4      3      2 
    18     18      6      7      2      1 
    19     19     13     12      5      6 
    20     20     10     12      5      4 
    21     21     33     19     20     21 
    22     22      8      6      7      2 
    23     23     36     22     21     35 
    24     24      8      6      5      4 
    25     25     12      5      4      3 
    26     26     14      9      8      6 
    27     27     13     12     10     11 
    28     28     26      1      2      3 
    29     29     35     21     20     34 
    30     30     30     14      9     10 
    31     31     15     14      9     10 
    32     32     18      8      9     10 
    33     33     22     23     18     19 
    34     34      9      8      6      7 
    35     35     32     17     15     16 
    36     36     35     21     22     23 
    37     37     13     12     10      9 
    38     38     31     14     15     16 
    39     39     30     14     15     17 
    40     40     23     18     19     20 
    41     41     10     12      5      6 
    42     42     22     23     18      8 
    43     43     27      3      2      7 
    44     44     28      4      5      6 
    45     45     37     23     18     19 
    46     46     23     18      8      9 
    47     47     25      1      2      7 
    48     48     28      4      3     27 
    49     49      7      2      3      4 
    50     50     34     20     21     22 
    51     51     31     14      9      8 
    52     52     14      9     10     11 
    53     53     27      3      2      1 
    54     54      9     10     12      5 
    55     55     24      1      2      7 
    56     56     34     20     19     18 
    57     57     12      5      6      8 
    58     58     25      1      2      3 
    59     59     36     22     23     18 
    60     60     29      7      6      8 
    61     61     13     12      5      4 
    62     62      5      6      7      2 
    63     63     37     23     22     21 
    64     64     18      8      9     14 
    65     65     31     14      9     10 
    66     66     35     21     20     19 
    67     67     33     19     18      8 
    68     68     37     23     22     36 
    69     69      6      7      2      3 
    70     70     23     22     21     20 
    71     71     28      4      5     12 
    72     72     29      7      2      3 
    73     73     33     19     18     23 
    74     74     21     22     23     18 
    75     75     37     23     18      8 
    76     76     17     15     14      9 
    77     77     19     18      8      9 
    78     78     30     14     15     16 
    79     79     18      8      6      5 
    80     80     26      1      2      7 
    81     81     12     10      9      8 
    82     82     29      7      6      5 
    83     83     12      5      6      7 
    84     84     18      8      6      7 
    85     85     29      7      2      1 
    86     86     14      9     10     12 
    87     87     36     22     21     20 
    88     88      7      6      5      4 
    89     89     30     14      9      8 
    90     90     11     10     12      5 
    91     91     31     14     15     17 
    92     92     23     18      8      6 

Impropers

     1      1      2      1      3      7 
     2      2      6      5      7      8 
     3      3      5      4     12      6 
     4      4     12      5     13     10 
     5      5      9     10     14      8 
     6      6     15     17     14     16 
     7      7      8      9     18      6 
     8      8     18     19     23      8 
     9      9      1     25     24      2 
    10     10      1     26     24      2 
    11     11      3      2     27      4 
    12     12      4      3     28      5 
    13     13      7      2     29      6 
    14     14     14      9     30     15 
    15     15     14      9     15     31 
    16     16     19     33     18     20 
    17     17     20     34     19     21 
    18     18     21     35     20     22 
    19     19     22     36     21     23 
    20     20     23     18     37     22 
    21     21     10      9     11     12 
